<?xml version="1.0"?>
<VTKFile type="UnstructuredGrid"  version="0.1"  >
<UnstructuredGrid>
<Piece  NumberOfPoints="281" NumberOfCells="499">
<Points>
<DataArray  type="Float64"  NumberOfComponents="3"  format="ascii">0 0.1 0  0 0.5 0  0.5 0 0  1 0 0  1 0.5 0  0.5 0.1 0  0 0.1799999999998134 0  0 0.2599999999995781 0  0 0.339999999999577 0  0 0.4199999999997887 0  0.08333333333317333 0.5 0  0.1666666666663215 0.5 0  0.2499999999994119 0.5 0  0.3333333333325022 0.5 0  0.4166666666655926 0.5 0  0.4999999999986938 0.5 0  0.5833333333322362 0.5 0  0.6666666666657896 0.5 0  0.7499999999993426 0.5 0  0.8333333333328952 0.5 0  0.9166666666664477 0.5 0  1 0.416666666666551 0  1 0.3333333333337959 0  1 0.2500000000010296 0  1 0.1666666666673599 0  1 0.08333333333367976 0  0.918297677239125 0 0  0.8484624800345445 0 0  0.7887707559215011 0 0  0.7377491716060849 0 0  0.6941384019369823 0 0  0.6568620280848555 0 0  0.625000000048247 0 0  0.5977658892505955 0 0  0.5744874948833367 0 0  0.5545902542805006 0 0  0.5375830565699546 0 0  0.5230461323871463 0 0  0.5106206758308567 0 0  0.5 0.009999999999982483 0  0.5 0.019999999999956 0  0.5 0.02999999999992728 0  0.5 0.03999999999989585 0  0.5 0.0499999999998685 0  0.5 0.05999999999989426 0  0.5 0.06999999999991974 0  0.5 0.07999999999994738 0  0.5 0.08999999999997287 0  0.4893793241690905 0.1 0  0.4769538676127296 0.1 0  0.462416943429827 0.1 0  0.4454097457191589 0.1 0  0.4255125051163052 0.1 0  0.4022341107491483 0.1 0  0.3749999999516439 0.1 0  0.3431379719152397 0.1 0  0.3058615980633893 0.1 0  0.2622508283946544 0.1 0  0.2112292440792644 0.1 0  0.1515375199660526 0.1 0  0.08170232276122352 0.1 0  0.673115087376166 0.2054648087422156 0  0.5919742852024226 0.09652122063869462 0  0.4997139733730235 0.2994491526455382 0  0.5545380887743211 0.05800238297534163 0  0.3150919101086394 0.2677743460189744 0  0.4965157508582375 0.2027047934337552 0  0.4163943833155475 0.1832192591843128 0  0.5534897817891485 0.1548826229305336 0  0.5432986327188398 0.0970293460294215 0  0.4946896620845459 0.1498236524722102 0  0.8236996937414243 0.1538421800840475 0  0.5844697366761334 0.2495050813805025 0  0.1751413037288276 0.2471156841992216 0  0.8034687676476623 0.3213656450717887 0  0.6942936819151024 0.1035899377127268 0  0.531060430395373 0.02957259049440906 0  0.4531720685447297 0.1397611068904657 0  0.5255241132590924 0.05499999999988139 0  0.3272618293066898 0.180679324989403 0  0.5958530953547282 0.3748067605252165 0  0.3944864385785097 0.3761281912924792 0  0.6398999349993789 0.05525231162689078 0  0.4411637611751519 0.2499647503890167 0  0.2327783645418272 0.3715048260569473 0  0.4952506199733037 0.1229172863853917 0  0.5223438034717345 0.119498212483664 0  0.619552642560824 0.161829636352324 0  0.4138733079327268 0.1383912511513531 0  0.5187785705452606 0.07391385918310184 0  0.6787591088909677 0.3007036292035977 0  0.5193786487676015 0.09499999999998646 0  0.5904070914175473 0.03968863100832741 0  0.2421065135463824 0.182921479374196 0  0.1197464737754123 0.3403949023177837 0  0.5579384577962242 0.02748920406813296 0  0.8801043194025587 0.2465414718715745 0  0.5168334041090009 0.01611913753096267 0  0.7647178157440948 0.06915510525506946 0  0.4654259009938683 0.1750665627338368 0  0.7671791882700257 0.2343989833151044 0  0.3622816342214997 0.1517322215736617 0  0.4917558498909287 0.4001483968925211 0  0.5490134567352288 0.2076330042447416 0  0.7128940575173101 0.3975554097298568 0  0.4698220214054598 0.1251141085209483 0  0.3808064639540116 0.232348493526191 0  0.5131033535899067 0.253493623235319 0  0.8833800786368345 0.08472726896468327 0  0.6484691704858947 0.1093146043422326 0  0.571097060475254 0.1209171257067028 0  0.8991530435877718 0.3882361129002225 0  0.5212760921956272 0.1748765766251304 0  0.5166904542631119 0.03540152430842095 0  0.3992969364013293 0.3093245302253397 0  0.1245597633596905 0.1903279934864868 0  0.7443175346281983 0.1593069148690282 0  0.5702676835763988 0.07826709208550203 0  0.6938515048278064 0.05476506725325116 0  0.540549546220884 0.06932757691877972 0  0.3140842623625156 0.3657428458078497 0  0.4346193782180092 0.1225986252281258 0  0.5573174699233128 0.3251846329619473 0  0.2466094002959714 0.2491971826539271 0  0.5140148663468315 0.1390396023580341 0  0.4831665958909092 0.1142264645699771 0  0.4533086784985404 0.2168055767456068 0  0.2840562132290218 0.1492048278617262 0  0.1822582458559811 0.1515962180735921 0  0.3285655377355897 0.1348931384098915 0  0.5935963431648845 0.0646506717479233 0  0.6190709925640657 0.03251766508468034 0  0.8984432755112773 0.1645372280524283 0  0.5824421138033581 0.1810164994118462 0  0.6257032775358137 0.2086673402318994 0  0.5122723236514336 0.0549999999998814 0  0.8112199210577667 0.4186749520871922 0  0.1029478387832746 0.2612363232471961 0  0.3677479311231261 0.192825440642268 0  0.4537160240110388 0.3442373928556998 0  0.5119981151648186 0.08485645358982977 0  0.5433210805797346 0.01703212532328874 0  0.5074171896446847 0.1144861641391594 0  0.4552072885068826 0.1162366536271506 0  0.1589098837212751 0.41178471017492 0  0.6678429772239897 0.1541754009354858 0  0.388617055350396 0.1250882975152554 0  0.5401483362009373 0.04450945341090372 0  0.818616617978023 0.05037326112113719 0  0.2825790350318429 0.4276146304598761 0  0.6021545841555129 0.1282719311020556 0  0.4405019719943652 0.165339674470989 0  0.4740253399468519 0.1440685664263268 0  0.509845519709711 0.02545808671351199 0  0.7468807062083709 0.2966521560594517 0  0.4946896620845458 0.1107888245311227 0  0.07410773781282727 0.3974646987677215 0  0.5282181496186507 0.0131559766400298 0  0.921057888992598 0.3165205352172817 0  0.5455301676794613 0.1166573571957231 0  0.644053301761535 0.4293447675581771 0  0.207997680151264 0.3043877372919845 0  0.513280686254924 0.3510464660457896 0  0.4199771128500032 0.2189922337330923 0  0.494329217844574 0.176298444000478 0  0.5551192364761955 0.4339558618448584 0  0.6153002542337485 0.2965601876609091 0  0.5102062888514175 0.06620957323387146 0  0.6234471006670044 0.0803125254599469 0  0.4826465645879596 0.2308545783689017 0  0.2894868548304354 0.2107957582198674 0  0.5090373601944483 0.04413244937743621 0  0.5090907515238043 0.09501294051322208 0  0.5305655649321309 0.0845789035104233 0  0.65875687605661 0.2528984027849902 0  0.4319587665613258 0.4333401513628637 0  0.2776936507128604 0.3109451378851403 0  0.5349377237002125 0.1368302967791019 0  0.7092608738049928 0.2465869246213747 0  0.828888308153386 0.2127913037921851 0  0.6475202402509734 0.02698325450891143 0  0.5794571530530406 0.1478955434489051 0  0.5263730192180545 0.0419281002141861 0  0.4488769762039505 0.2953610933718811 0  0.3942019398824416 0.1633622282760596 0  0.7448782219872918 0.1135918209948613 0  0.3589964954056076 0.4333663657961251 0  0.2379718051746536 0.1374239140800568 0  0.5753460935080416 0.01924291673113409 0  0.7323908822664387 0.04137820195372434 0  0.5680673403755543 0.04130091549163768 0  0.574050431022544 0.05793732794101273 0  0.3381986714182104 0.227409969577504 0  0.658490047345449 0.3594237877872423 0  0.05832263956378758 0.2216313216083209 0  0.4138733079327269 0.1174312794419163 0  0.6631838905583931 0.0773129266793141 0  0.5096651640966586 0.009625119717055378 0  0.5442863205626446 0.03106541820257617 0  0.3590689859334417 0.1226209377385797 0  0.562052587856359 0.0993561663279844 0  0.9420599585183148 0.1149786082612627 0  0.8087963006437873 0.1041557733602784 0  0.5179029039599263 0.2206960275790425 0  0.9414663572091801 0.2111357345728637 0  0.5296710091173272 0.1036238762938402 0  0.5204914099805615 0.02460257357201049 0  0.05900549023472366 0.3056319020562359 0  0.4695706974198671 0.1109240333554732 0  0.5515530353076138 0.2760827713949314 0  0.5130787418150086 0.1569423286467773 0  0.8144753438122291 0.2690272531186872 0  0.4326577846863625 0.1446977187981166 0  0.5145029610814124 0.1048158882453448 0  0.5079756262379769 0.07499731813420055 0  0.3467668941709906 0.3166854369336014 0  0.4758410637966931 0.2665012104874172 0  0.5443874120670356 0.1790001385857098 0  0.6015222872272629 0.01911705911773055 0  0.5517031083140119 0.08166071734021285 0  0.1515823771055019 0.2922829609218351 0  0.4425057591890827 0.1932608011273814 0  0.4044930914567503 0.2658682125474774 0  0.8553831464871002 0.304954732762063 0  0.2188688234173054 0.4424643219689166 0  0.6763181561242305 0.02433402708664152 0  0.4803303300669781 0.1613590175967144 0  0.9350822433825225 0.05647592800950009 0  0.4846809433059457 0.131802563806937 0  0.7118590703400697 0.3437165790299987 0  0.1743359283053079 0.3522621088906033 0  0.06413306899789162 0.1546117953948418 0  0.7849014420957473 0.1865368235940788 0  0.5478053689809652 0.2374686638702356 0  0.5824218162869343 0.215291405469598 0  0.9380492458051219 0.4380492458051485 0  0.3648670191537467 0.2739294003107667 0  0.615309103333628 0.05569978240717036 0  0.559679695979958 0.01306307737514562 0  0.4186785271906511 0.159649952133995 0  0.7116862264226849 0.1444986961661983 0  0.7234909536341116 0.07531894728057709 0  0.4625008990715299 0.1571998001975742 0  0.5070125906052759 0.03499894138652949 0  0.9506338151029033 0.371388112099279 0  0.5285974142087672 0.06656560259611419 0  0.5381063915719508 0.05710154073300301 0  0.7062117088775557 0.453670759220244 0  0.8692445517273145 0.4378411758472507 0  0.6192999046994846 0.1081073936041095 0  0.1996016266076821 0.2005992831783349 0  0.5535441835903698 0.04127376628669688 0  0.5179895720626003 0.04679052008930119 0  0.7686282956804238 0.03216842813343374 0  0.8833800786368345 0.03516855604390621 0  0.721143251508353 0.1935696514791904 0  0.8458557539451645 0.3637586761979391 0  0.4721100455835456 0.1985527788119986 0  0.7659710469949395 0.364834148285552 0  0.5182123564034483 0.007393780016268708 0  0.5075718628453558 0.01736445421180412 0  0.6306150651684056 0.1338951931679531 0  0.7597887962167814 0.4401732626098492 0  0.4985787424968969 0.1350744797067037 0  0.1166199213636381 0.1334764511258412 0  0.646943264601865 0.1823900251065761 0  0.5071359007372117 0.1261269787443317 0  0.7798213808254697 0.1430843170718803 0  0.6656978039315601 0.04848866172308046 0  0.3962026665087685 0.2000233986475619 0  0.4440362684613577 0.3884580306435583 0  0.5450785039393916 0.3802737711457065 0  0.04430886031698783 0.4572477149474056 0  0.1178859337661795 0.454157459321443 0  0.5167900563911488 0.1967493111847909 0  0.555754443651682 0.135075783097922 0  0.6216976092075004 0.2493561706904225 0  0.5190165675538841 0.06269527166547463 0  0.8636457528630035 0.1297783729903784 0  0.7053573425859186 0.02474004236771176 0  0.5307233892555587 0.1563950726912499 0  </DataArray>
</Points>
<Cells>
<DataArray  type="UInt32"  Name="connectivity"  format="ascii">15 102 175  8 156 207  64 117 219  79 127 170  56 57 127  51 52 121  16 160 165  64 119 219  73 115 137  73 115 250  15 102 165  63 139 162  80 160 165  33 34 188  23 158 204  63 122 209  63 107 209  79 101 129  75 109 145  96 158 204  65 123 170  48 49 125  80 122 166  62 110 200  93 123 250  35 36 141  8 9 156  115 128 250  81 120 186  56 127 129  77 105 143  89 140 173  94 156 207  91 140 173  64 117 191  79 127 129  79 101 138  65 170 192  80 166 193  92 130 237  92 131 237  43 44 135  62 110 150  82 168 196  51 121 143  92 190 191  62 117 200  63 122 162  87 133 134  2 39 197  72 166 209  93 127 170  32 131 180  81 120 215  93 123 170  102 139 162  145 240 255  33 188 218  92 131 218  71 132 179  108 148 202  62 117 130  132 201 204  84 120 149  137 194 207  58 128 187  44 135 167  2 38 197  97 157 206  81 114 215  58 59 128  76 157 206  22 23 158  109 168 196  16 17 160  55 56 129  44 45 167  92 130 191  77 121 143  5 142 155  61 145 255  76 141 157  81 114 139  46 47 140  5 142 213  7 194 207  120 149 186  122 166 209  73 123 250  84 120 176  32 33 218  32 131 218  77 105 152  71 132 278  93 128 187  31 32 180  24 201 204  89 173 245  63 107 216  96 132 179  70 164 210  90 166 193  90 154 178  5 172 213  83 126 169  117 130 191  90 174 178  14 175 186  68 133 181  34 35 238  55 129 199  67 184 269  68 133 217  65 123 176  119 173 219  63 139 183  48 125 155  19 136 262  50 51 143  73 123 161  88 146 184  53 54 146  91 173 205  36 141 157  75 109 196  14 15 175  101 138 184  94 144 156  100 154 211  122 162 271  76 113 206  70 124 263  102 139 270  99 151 221  108 202 278  79 138 192  87 133 181  52 121 195  119 173 245  99 221 257  13 14 186  57 127 187  84 161 176  95 188 190  34 188 238  27 28 148  80 122 271  12 13 149  0 60 231  70 228 263  43 135 171  36 37 157  35 141 238  40 41 153  101 129 199  66 169 257  3 26 227  76 113 182  114 139 183  101 146 184  106 138 192  86 124 177  158 223 256  70 152 228  81 175 186  85 125 228  78 147 182  75 118 196  75 145 240  5 48 155  133 134 234  0 6 231  76 147 182  123 161 176  69 173 219  18 19 262  85 142 155  111 158 256  74 154 211  79 170 192  49 125 208  15 16 165  77 151 242  53 146 195  3 25 227  59 128 264  138 184 269  62 130 168  106 163 222  50 143 208  109 145 261  66 169 203  112 164 274  83 183 222  13 149 186  87 150 181  65 176 215  84 144 224  86 124 266  57 58 187  74 256 258  77 151 212  108 148 254  19 136 248  86 159 177  87 145 261  116 232 255  66 164 274  73 137 220  47 140 172  98 185 202  103 133 217  112 164 210  83 169 216  46 140 214  115 137 194  83 163 222  69 159 200  69 159 205  64 119 246  104 160 193  85 125 155  76 141 198  84 144 230  61 134 174  136 256 258  92 188 218  29 30 279  100 232 255  86 159 205  93 128 250  42 43 171  84 149 224  115 128 264  110 150 181  87 134 265  70 164 226  89 140 214  114 183 222  94 144 230  107 169 216  83 126 163  99 164 257  105 152 228  100 154 178  76 147 198  93 127 187  109 168 249  52 53 195  126 169 257  75 118 241  112 217 274  4 21 235  4 20 235  97 157 259  105 125 228  82 131 180  54 146 199  69 173 205  96 132 204  92 188 190  11 144 224  80 160 193  101 146 199  37 157 259  28 148 253  78 147 246  5 47 172  27 148 254  106 192 236  108 201 278  70 124 210  94 137 207  90 166 174  54 55 199  86 142 266  88 146 195  99 151 242  66 164 257  77 121 212  49 50 208  88 121 195  61 174 178  124 177 280  98 148 253  105 143 208  94 137 220  7 8 207  69 200 219  120 176 215  96 158 223  166 174 276  6 7 194  116 240 255  124 210 280  132 201 278  113 171 252  41 153 243  98 148 202  62 150 249  24 25 201  103 217 274  28 29 253  39 40 260  85 228 263  91 205 213  136 248 256  87 145 265  96 179 211  96 211 223  136 258 262  37 38 259  104 258 262  185 202 267  11 12 224  111 248 256  106 163 269  103 133 234  104 193 229  82 131 237  103 233 234  45 167 214  29 189 279  59 60 264  23 24 204  19 20 248  26 27 254  95 188 238  30 31 225  134 234 276  90 154 229  67 163 221  102 165 271  11 144 273  98 185 241  80 165 271  70 152 226  20 235 248  88 121 212  89 167 214  89 167 277  126 163 221  113 182 252  72 234 276  72 166 276  86 142 213  95 141 198  105 125 208  75 185 241  64 190 191  74 154 258  86 205 213  64 147 246  42 171 243  85 142 266  107 169 203  106 138 269  65 192 236  12 149 224  40 153 260  126 221 257  39 197 260  110 181 275  45 46 214  111 158 244  72 233 234  83 183 216  73 161 220  61 134 265  91 140 172  112 217 280  71 202 278  113 171 243  100 179 211  29 189 253  75 185 240  81 139 270  21 22 244  95 141 238  100 178 255  104 160 247  17 18 247  1 10 272  130 168 237  113 153 243  88 184 239  10 11 273  63 183 216  117 200 219  99 164 226  22 158 244  41 42 243  144 156 273  97 153 206  102 175 270  113 153 206  111 235 248  67 151 221  81 175 270  102 162 271  89 245 277  38 197 259  68 181 275  90 193 229  78 135 252  9 156 272  1 9 272  82 196 268  100 179 232  134 174 276  110 159 200  71 179 232  84 161 230  67 163 269  68 217 280  72 209 233  61 145 265  62 168 249  78 135 277  103 203 274  154 229 258  6 194 231  97 153 260  77 152 242  107 209 233  17 160 247  31 180 225  118 196 268  66 203 274  61 178 255  161 220 230  64 147 251  118 189 279  115 194 231  116 185 240  95 190 251  25 201 227  118 189 241  98 189 241  108 201 227  114 215 236  82 168 237  67 151 239  74 211 223  135 167 277  67 184 239  94 220 230  91 172 213  64 190 251  78 245 246  106 222 236  65 215 236  21 235 244  111 235 244  78 182 252  150 249 261  87 150 261  135 171 252  152 226 242  156 272 273  103 203 233  159 177 275  97 197 260  118 225 268  116 185 267  151 212 239  10 272 273  82 180 268  114 222 236  71 202 267  108 227 254  26 227 254  180 225 268  147 198 251  98 189 253  107 203 233  115 231 264  74 223 256  60 231 264  110 159 275  97 197 259  116 232 267  95 198 251  85 263 266  119 245 246  88 212 239  118 225 279  112 210 280  18 247 262  78 245 277  109 249 261  104 229 258  104 247 262  99 226 242  71 232 267  68 177 280  68 177 275  30 225 279  124 263 266  </DataArray>
<DataArray  type="UInt32"  Name="offsets"  format="ascii">3 6 9 12 15 18 21 24 27 30 33 36 39 42 45 48 51 54 57 60 63 66 69 72 75 78 81 84 87 90 93 96 99 102 105 108 111 114 117 120 123 126 129 132 135 138 141 144 147 150 153 156 159 162 165 168 171 174 177 180 183 186 189 192 195 198 201 204 207 210 213 216 219 222 225 228 231 234 237 240 243 246 249 252 255 258 261 264 267 270 273 276 279 282 285 288 291 294 297 300 303 306 309 312 315 318 321 324 327 330 333 336 339 342 345 348 351 354 357 360 363 366 369 372 375 378 381 384 387 390 393 396 399 402 405 408 411 414 417 420 423 426 429 432 435 438 441 444 447 450 453 456 459 462 465 468 471 474 477 480 483 486 489 492 495 498 501 504 507 510 513 516 519 522 525 528 531 534 537 540 543 546 549 552 555 558 561 564 567 570 573 576 579 582 585 588 591 594 597 600 603 606 609 612 615 618 621 624 627 630 633 636 639 642 645 648 651 654 657 660 663 666 669 672 675 678 681 684 687 690 693 696 699 702 705 708 711 714 717 720 723 726 729 732 735 738 741 744 747 750 753 756 759 762 765 768 771 774 777 780 783 786 789 792 795 798 801 804 807 810 813 816 819 822 825 828 831 834 837 840 843 846 849 852 855 858 861 864 867 870 873 876 879 882 885 888 891 894 897 900 903 906 909 912 915 918 921 924 927 930 933 936 939 942 945 948 951 954 957 960 963 966 969 972 975 978 981 984 987 990 993 996 999 1002 1005 1008 1011 1014 1017 1020 1023 1026 1029 1032 1035 1038 1041 1044 1047 1050 1053 1056 1059 1062 1065 1068 1071 1074 1077 1080 1083 1086 1089 1092 1095 1098 1101 1104 1107 1110 1113 1116 1119 1122 1125 1128 1131 1134 1137 1140 1143 1146 1149 1152 1155 1158 1161 1164 1167 1170 1173 1176 1179 1182 1185 1188 1191 1194 1197 1200 1203 1206 1209 1212 1215 1218 1221 1224 1227 1230 1233 1236 1239 1242 1245 1248 1251 1254 1257 1260 1263 1266 1269 1272 1275 1278 1281 1284 1287 1290 1293 1296 1299 1302 1305 1308 1311 1314 1317 1320 1323 1326 1329 1332 1335 1338 1341 1344 1347 1350 1353 1356 1359 1362 1365 1368 1371 1374 1377 1380 1383 1386 1389 1392 1395 1398 1401 1404 1407 1410 1413 1416 1419 1422 1425 1428 1431 1434 1437 1440 1443 1446 1449 1452 1455 1458 1461 1464 1467 1470 1473 1476 1479 1482 1485 1488 1491 1494 1497 </DataArray>
<DataArray  type="UInt8"  Name="types"  format="ascii">5 5 5 5 5 5 5 5 5 5 5 5 5 5 5 5 5 5 5 5 5 5 5 5 5 5 5 5 5 5 5 5 5 5 5 5 5 5 5 5 5 5 5 5 5 5 5 5 5 5 5 5 5 5 5 5 5 5 5 5 5 5 5 5 5 5 5 5 5 5 5 5 5 5 5 5 5 5 5 5 5 5 5 5 5 5 5 5 5 5 5 5 5 5 5 5 5 5 5 5 5 5 5 5 5 5 5 5 5 5 5 5 5 5 5 5 5 5 5 5 5 5 5 5 5 5 5 5 5 5 5 5 5 5 5 5 5 5 5 5 5 5 5 5 5 5 5 5 5 5 5 5 5 5 5 5 5 5 5 5 5 5 5 5 5 5 5 5 5 5 5 5 5 5 5 5 5 5 5 5 5 5 5 5 5 5 5 5 5 5 5 5 5 5 5 5 5 5 5 5 5 5 5 5 5 5 5 5 5 5 5 5 5 5 5 5 5 5 5 5 5 5 5 5 5 5 5 5 5 5 5 5 5 5 5 5 5 5 5 5 5 5 5 5 5 5 5 5 5 5 5 5 5 5 5 5 5 5 5 5 5 5 5 5 5 5 5 5 5 5 5 5 5 5 5 5 5 5 5 5 5 5 5 5 5 5 5 5 5 5 5 5 5 5 5 5 5 5 5 5 5 5 5 5 5 5 5 5 5 5 5 5 5 5 5 5 5 5 5 5 5 5 5 5 5 5 5 5 5 5 5 5 5 5 5 5 5 5 5 5 5 5 5 5 5 5 5 5 5 5 5 5 5 5 5 5 5 5 5 5 5 5 5 5 5 5 5 5 5 5 5 5 5 5 5 5 5 5 5 5 5 5 5 5 5 5 5 5 5 5 5 5 5 5 5 5 5 5 5 5 5 5 5 5 5 5 5 5 5 5 5 5 5 5 5 5 5 5 5 5 5 5 5 5 5 5 5 5 5 5 5 5 5 5 5 5 5 5 5 5 5 5 5 5 5 5 5 5 5 5 5 5 5 5 5 5 5 5 5 5 5 5 5 5 5 5 5 5 5 5 5 5 5 5 5 5 5 5 5 5 5 5 5 5 5 5 5 5 5 5 5 5 5 5 5 5 5 5 5 </DataArray>
</Cells>
<PointData  Scalars="f_38"> 
<DataArray  type="Float64"  Name="f_38"  format="ascii">8.5427940782325662e-01  1.0655594183177997e+00  8.5582371811257130e-01  8.5483514906524349e-01  1.0650580681606374e+00  8.5592932010316758e-01  8.6381109715890492e-01  8.9080690870578771e-01  9.3405938514076781e-01  9.9266242456355402e-01  1.0661450431791681e+00  1.0653927090872981e+00  1.0661935355548213e+00  1.0661107686653803e+00  1.0662486615499505e+00  1.0652202918805720e+00  1.0659648010258334e+00  1.0664452626824905e+00  1.0665498209709499e+00  1.0655034496209352e+00  1.0658864968138173e+00  9.9106699021188827e-01  9.3386722221480445e-01  8.9293658698987932e-01  8.6647163998958854e-01  8.5500067352064379e-01  8.5527012928041823e-01  8.5541786517713747e-01  8.5554653353697596e-01  8.5560449378396752e-01  8.5570219051736329e-01  8.5572399273350119e-01  8.5573024640021744e-01  8.5577440650863545e-01  8.5578858965501403e-01  8.5580403820399609e-01  8.5581405127958565e-01  8.5581992279740693e-01  8.5582269161416291e-01  8.5582427553125107e-01  8.5582657427070818e-01  8.5583014441540095e-01  8.5583565519061999e-01  8.5584374695860299e-01  8.5585295173644993e-01  8.5586408127325952e-01  8.5587690807512906e-01  8.5589117584803642e-01  8.5592593373446257e-01  8.5593534309762209e-01  8.5593227447781328e-01  8.5588796396214262e-01  8.5590043587043041e-01  8.5584949901155627e-01  8.5580636994830539e-01  8.5573322284594433e-01  8.5546463198006895e-01  8.5546577478126229e-01  8.5540683055963185e-01  8.5530810325211626e-01  8.5537329668442819e-01  8.7964049047418125e-01  8.5796746227238097e-01  9.1286568431933790e-01  8.5590974912009854e-01  8.9481929642031044e-01  8.7296562203731498e-01  8.6618600550579883e-01  8.6363862686114068e-01  8.5678944553107828e-01  8.6057527783090260e-01  8.6842544129325705e-01  8.9212198513451380e-01  8.8586511543245428e-01  9.2921631740286315e-01  8.6039151715965523e-01  8.5578960733178211e-01  8.5843663077834864e-01  8.5581119605836931e-01  8.6500096427959661e-01  9.6009814339063015e-01  9.5926548453333849e-01  8.5655931016692843e-01  8.8851749393927848e-01  9.5534347379568252e-01  8.5714764310118363e-01  8.5756928813446798e-01  8.6745268302451850e-01  8.5816985817704250e-01  8.5587323981414487e-01  9.1749583784481636e-01  8.5615326992251783e-01  8.5591165736141783e-01  8.6522222031757912e-01  9.3439442442956377e-01  8.5578494145388762e-01  8.9408533855184158e-01  8.5581711439496277e-01  8.5777933796350225e-01  8.6493654022383004e-01  8.9021718595788246e-01  8.5969665798489570e-01  9.7743823942116570e-01  8.7622151058286568e-01  9.7780597271797254e-01  8.5705083024634665e-01  8.8088223717114500e-01  8.9155800934605689e-01  8.5807249528627905e-01  8.6036878352524171e-01  8.5951840594304318e-01  9.7069124937897788e-01  8.6651719727120846e-01  8.5581147425309079e-01  9.1668968400565243e-01  8.6660428658754851e-01  8.6954023169178285e-01  8.5657144146250042e-01  8.5677954899537168e-01  8.5597116437901322e-01  9.5161972036073161e-01  8.5667938214469086e-01  9.2850200468332544e-01  8.8642081783869886e-01  8.5952157144623820e-01  8.5632169278385928e-01  8.7639616241878393e-01  8.5873524482329378e-01  8.5902711835660039e-01  8.5742388058731578e-01  8.5643398680384875e-01  8.5593516983149365e-01  8.6930830513957302e-01  8.7026247251538957e-01  8.7925381746381781e-01  8.5583060699254676e-01  9.9358370682054853e-01  8.9151115619713339e-01  8.6819802788795419e-01  9.3827566272855600e-01  8.5590662608903245e-01  8.5579429473618018e-01  8.5671740674666541e-01  8.5635165326991836e-01  9.8587930864409679e-01  8.6719051499175293e-01  8.5667668936519070e-01  8.5578739495846823e-01  8.5650159353179001e-01  9.9915298435687316e-01  8.6139144408274504e-01  8.6246521904636109e-01  8.5929922770823242e-01  8.5582258944183531e-01  9.1604148627838544e-01  8.5626593951061003e-01  9.7451330739710929e-01  8.5581006048769370e-01  9.2497739202091478e-01  8.5818115615444179e-01  1.0016245014031218e+00  9.1313248629445554e-01  9.4362478922463755e-01  8.7643949141940680e-01  8.6582493235131053e-01  1.0055957447593245e+00  9.1373762845218842e-01  8.5584804883271159e-01  8.5757391997326227e-01  8.8187792516480579e-01  8.7276275603690956e-01  8.5582886260030711e-01  8.5598097479909241e-01  8.5608618921752255e-01  8.9546839206834516e-01  1.0047410265539449e+00  9.1669889440796037e-01  8.6001697714210323e-01  8.9401345433945778e-01  8.8318780744687631e-01  8.5590667074956417e-01  8.6349197637235953e-01  8.5579467127216080e-01  9.0991683682544644e-01  8.6169367318325030e-01  8.6206427924523621e-01  1.0042145640238045e+00  8.5763043107752901e-01  8.5578354762419784e-01  8.5634846807856979e-01  8.5584756083549440e-01  8.5608735390388646e-01  8.7868548121449785e-01  9.5075782952222698e-01  8.7582089952337783e-01  8.5639367830108526e-01  8.5790249178377498e-01  8.5582264123710516e-01  8.5578170064733661e-01  8.5659839298779472e-01  8.5742874283198700e-01  8.5920771633207715e-01  8.6083097176768419e-01  8.7934291503347839e-01  8.7984330656864007e-01  8.5671964233877240e-01  8.5580861869498570e-01  9.1332509162839826e-01  8.5616918768588623e-01  9.0268035206939079e-01  8.6245230350477775e-01  9.0385808325023698e-01  8.5903918050632422e-01  8.5636168383454980e-01  8.5586680638822010e-01  9.2037144808074955e-01  8.9641829292693742e-01  8.6833849466590474e-01  8.5580284967798026e-01  8.5637445085764463e-01  9.0702906353685797e-01  8.6906374110874707e-01  8.9477448573176366e-01  9.2037570033408533e-01  1.0121518506827696e+00  8.5587968058360564e-01  8.6236474559733745e-01  8.5558258977427160e-01  8.5785702694436461e-01  9.4180152346793145e-01  9.4253139807812625e-01  8.5924144467883112e-01  8.7599576373108001e-01  8.8630035630353921e-01  8.7982412553135148e-01  1.0089142599970351e+00  8.9807748491329542e-01  8.5640871964850751e-01  8.5579069770034366e-01  8.6131240330155912e-01  8.6639642835836972e-01  8.5819480843152252e-01  8.6128760531027548e-01  8.5582760155823556e-01  9.5874070554401247e-01  8.5586179258440764e-01  8.5583836145305070e-01  1.0230092207677148e+00  1.0088392459086961e+00  8.5968054176838749e-01  8.6996339089665131e-01  8.5580419661845275e-01  8.5581240725021512e-01  8.5606475688520633e-01  8.5572780312310104e-01  8.7718463582756823e-01  9.5413133462509159e-01  8.7107456203163380e-01  9.5483693570545225e-01  8.5581962189765826e-01  8.5582359561719068e-01  8.6310467676428448e-01  1.0110650441650173e+00  8.5856851653814747e-01  8.5698334656032160e-01  8.7299096685564337e-01  8.5776087059163131e-01  8.6663509944125949e-01  8.5648541406949008e-01  8.7044360148553390e-01  9.6913661462498957e-01  9.6386985313795415e-01  1.0252741879352667e+00  1.0224962534588775e+00  8.7189180754856044e-01  8.6066294845290270e-01  8.9324362426686610e-01  8.5583337391692249e-01  8.6369426438204799e-01  8.5590524969187631e-01  8.6299395073023344e-01  </DataArray> 
</PointData> 
</Piece>
</UnstructuredGrid>
</VTKFile>