<?xml version="1.0"?>
<VTKFile type="UnstructuredGrid"  version="0.1"  >
<UnstructuredGrid>
<Piece  NumberOfPoints="561" NumberOfCells="1000">
<Points>
<DataArray  type="Float64"  NumberOfComponents="3"  format="ascii">0 0 0  0.1 0 0  0.2 0 0  0.3 0 0  0.4 0 0  0.5 0 0  0.6 0 0  0.7 0 0  0.8 0 0  0.9 0 0  1 0 0  1.1 0 0  1.2 0 0  1.3 0 0  1.4 0 0  1.5 0 0  1.6 0 0  1.7 0 0  1.8 0 0  1.9 0 0  2 0 0  2.1 0 0  2.2 0 0  2.3 0 0  2.4 0 0  2.5 0 0  2.6 0 0  2.7 0 0  2.8 0 0  2.9 0 0  3 0 0  3.1 0 0  3.2 0 0  3.3 0 0  3.4 0 0  3.5 0 0  3.6 0 0  3.7 0 0  3.8 0 0  3.9 0 0  4 0 0  4.1 0 0  4.2 0 0  4.3 0 0  4.4 0 0  4.5 0 0  4.6 0 0  4.7 0 0  4.8 0 0  4.9 0 0  5 0 0  0 0.1 0  0.1 0.1 0  0.2 0.1 0  0.3 0.1 0  0.4 0.1 0  0.5 0.1 0  0.6 0.1 0  0.7 0.1 0  0.8 0.1 0  0.9 0.1 0  1 0.1 0  1.1 0.1 0  1.2 0.1 0  1.3 0.1 0  1.4 0.1 0  1.5 0.1 0  1.6 0.1 0  1.7 0.1 0  1.8 0.1 0  1.9 0.1 0  2 0.1 0  2.1 0.1 0  2.2 0.1 0  2.3 0.1 0  2.4 0.1 0  2.5 0.1 0  2.6 0.1 0  2.7 0.1 0  2.8 0.1 0  2.9 0.1 0  3 0.1 0  3.1 0.1 0  3.2 0.1 0  3.3 0.1 0  3.4 0.1 0  3.5 0.1 0  3.6 0.1 0  3.7 0.1 0  3.8 0.1 0  3.9 0.1 0  4 0.1 0  4.1 0.1 0  4.2 0.1 0  4.3 0.1 0  4.4 0.1 0  4.5 0.1 0  4.6 0.1 0  4.7 0.1 0  4.8 0.1 0  4.9 0.1 0  5 0.1 0  0 0.2 0  0.1 0.2 0  0.2 0.2 0  0.3 0.2 0  0.4 0.2 0  0.5 0.2 0  0.6 0.2 0  0.7 0.2 0  0.8 0.2 0  0.9 0.2 0  1 0.2 0  1.1 0.2 0  1.2 0.2 0  1.3 0.2 0  1.4 0.2 0  1.5 0.2 0  1.6 0.2 0  1.7 0.2 0  1.8 0.2 0  1.9 0.2 0  2 0.2 0  2.1 0.2 0  2.2 0.2 0  2.3 0.2 0  2.4 0.2 0  2.5 0.2 0  2.6 0.2 0  2.7 0.2 0  2.8 0.2 0  2.9 0.2 0  3 0.2 0  3.1 0.2 0  3.2 0.2 0  3.3 0.2 0  3.4 0.2 0  3.5 0.2 0  3.6 0.2 0  3.7 0.2 0  3.8 0.2 0  3.9 0.2 0  4 0.2 0  4.1 0.2 0  4.2 0.2 0  4.3 0.2 0  4.4 0.2 0  4.5 0.2 0  4.6 0.2 0  4.7 0.2 0  4.8 0.2 0  4.9 0.2 0  5 0.2 0  0 0.3 0  0.1 0.3 0  0.2 0.3 0  0.3 0.3 0  0.4 0.3 0  0.5 0.3 0  0.6 0.3 0  0.7 0.3 0  0.8 0.3 0  0.9 0.3 0  1 0.3 0  1.1 0.3 0  1.2 0.3 0  1.3 0.3 0  1.4 0.3 0  1.5 0.3 0  1.6 0.3 0  1.7 0.3 0  1.8 0.3 0  1.9 0.3 0  2 0.3 0  2.1 0.3 0  2.2 0.3 0  2.3 0.3 0  2.4 0.3 0  2.5 0.3 0  2.6 0.3 0  2.7 0.3 0  2.8 0.3 0  2.9 0.3 0  3 0.3 0  3.1 0.3 0  3.2 0.3 0  3.3 0.3 0  3.4 0.3 0  3.5 0.3 0  3.6 0.3 0  3.7 0.3 0  3.8 0.3 0  3.9 0.3 0  4 0.3 0  4.1 0.3 0  4.2 0.3 0  4.3 0.3 0  4.4 0.3 0  4.5 0.3 0  4.6 0.3 0  4.7 0.3 0  4.8 0.3 0  4.9 0.3 0  5 0.3 0  0 0.4 0  0.1 0.4 0  0.2 0.4 0  0.3 0.4 0  0.4 0.4 0  0.5 0.4 0  0.6 0.4 0  0.7 0.4 0  0.8 0.4 0  0.9 0.4 0  1 0.4 0  1.1 0.4 0  1.2 0.4 0  1.3 0.4 0  1.4 0.4 0  1.5 0.4 0  1.6 0.4 0  1.7 0.4 0  1.8 0.4 0  1.9 0.4 0  2 0.4 0  2.1 0.4 0  2.2 0.4 0  2.3 0.4 0  2.4 0.4 0  2.5 0.4 0  2.6 0.4 0  2.7 0.4 0  2.8 0.4 0  2.9 0.4 0  3 0.4 0  3.1 0.4 0  3.2 0.4 0  3.3 0.4 0  3.4 0.4 0  3.5 0.4 0  3.6 0.4 0  3.7 0.4 0  3.8 0.4 0  3.9 0.4 0  4 0.4 0  4.1 0.4 0  4.2 0.4 0  4.3 0.4 0  4.4 0.4 0  4.5 0.4 0  4.6 0.4 0  4.7 0.4 0  4.8 0.4 0  4.9 0.4 0  5 0.4 0  0 0.5 0  0.1 0.5 0  0.2 0.5 0  0.3 0.5 0  0.4 0.5 0  0.5 0.5 0  0.6 0.5 0  0.7 0.5 0  0.8 0.5 0  0.9 0.5 0  1 0.5 0  1.1 0.5 0  1.2 0.5 0  1.3 0.5 0  1.4 0.5 0  1.5 0.5 0  1.6 0.5 0  1.7 0.5 0  1.8 0.5 0  1.9 0.5 0  2 0.5 0  2.1 0.5 0  2.2 0.5 0  2.3 0.5 0  2.4 0.5 0  2.5 0.5 0  2.6 0.5 0  2.7 0.5 0  2.8 0.5 0  2.9 0.5 0  3 0.5 0  3.1 0.5 0  3.2 0.5 0  3.3 0.5 0  3.4 0.5 0  3.5 0.5 0  3.6 0.5 0  3.7 0.5 0  3.8 0.5 0  3.9 0.5 0  4 0.5 0  4.1 0.5 0  4.2 0.5 0  4.3 0.5 0  4.4 0.5 0  4.5 0.5 0  4.6 0.5 0  4.7 0.5 0  4.8 0.5 0  4.9 0.5 0  5 0.5 0  0 0.6 0  0.1 0.6 0  0.2 0.6 0  0.3 0.6 0  0.4 0.6 0  0.5 0.6 0  0.6 0.6 0  0.7 0.6 0  0.8 0.6 0  0.9 0.6 0  1 0.6 0  1.1 0.6 0  1.2 0.6 0  1.3 0.6 0  1.4 0.6 0  1.5 0.6 0  1.6 0.6 0  1.7 0.6 0  1.8 0.6 0  1.9 0.6 0  2 0.6 0  2.1 0.6 0  2.2 0.6 0  2.3 0.6 0  2.4 0.6 0  2.5 0.6 0  2.6 0.6 0  2.7 0.6 0  2.8 0.6 0  2.9 0.6 0  3 0.6 0  3.1 0.6 0  3.2 0.6 0  3.3 0.6 0  3.4 0.6 0  3.5 0.6 0  3.6 0.6 0  3.7 0.6 0  3.8 0.6 0  3.9 0.6 0  4 0.6 0  4.1 0.6 0  4.2 0.6 0  4.3 0.6 0  4.4 0.6 0  4.5 0.6 0  4.6 0.6 0  4.7 0.6 0  4.8 0.6 0  4.9 0.6 0  5 0.6 0  0 0.7 0  0.1 0.7 0  0.2 0.7 0  0.3 0.7 0  0.4 0.7 0  0.5 0.7 0  0.6 0.7 0  0.7 0.7 0  0.8 0.7 0  0.9 0.7 0  1 0.7 0  1.1 0.7 0  1.2 0.7 0  1.3 0.7 0  1.4 0.7 0  1.5 0.7 0  1.6 0.7 0  1.7 0.7 0  1.8 0.7 0  1.9 0.7 0  2 0.7 0  2.1 0.7 0  2.2 0.7 0  2.3 0.7 0  2.4 0.7 0  2.5 0.7 0  2.6 0.7 0  2.7 0.7 0  2.8 0.7 0  2.9 0.7 0  3 0.7 0  3.1 0.7 0  3.2 0.7 0  3.3 0.7 0  3.4 0.7 0  3.5 0.7 0  3.6 0.7 0  3.7 0.7 0  3.8 0.7 0  3.9 0.7 0  4 0.7 0  4.1 0.7 0  4.2 0.7 0  4.3 0.7 0  4.4 0.7 0  4.5 0.7 0  4.6 0.7 0  4.7 0.7 0  4.8 0.7 0  4.9 0.7 0  5 0.7 0  0 0.8 0  0.1 0.8 0  0.2 0.8 0  0.3 0.8 0  0.4 0.8 0  0.5 0.8 0  0.6 0.8 0  0.7 0.8 0  0.8 0.8 0  0.9 0.8 0  1 0.8 0  1.1 0.8 0  1.2 0.8 0  1.3 0.8 0  1.4 0.8 0  1.5 0.8 0  1.6 0.8 0  1.7 0.8 0  1.8 0.8 0  1.9 0.8 0  2 0.8 0  2.1 0.8 0  2.2 0.8 0  2.3 0.8 0  2.4 0.8 0  2.5 0.8 0  2.6 0.8 0  2.7 0.8 0  2.8 0.8 0  2.9 0.8 0  3 0.8 0  3.1 0.8 0  3.2 0.8 0  3.3 0.8 0  3.4 0.8 0  3.5 0.8 0  3.6 0.8 0  3.7 0.8 0  3.8 0.8 0  3.9 0.8 0  4 0.8 0  4.1 0.8 0  4.2 0.8 0  4.3 0.8 0  4.4 0.8 0  4.5 0.8 0  4.6 0.8 0  4.7 0.8 0  4.8 0.8 0  4.9 0.8 0  5 0.8 0  0 0.9 0  0.1 0.9 0  0.2 0.9 0  0.3 0.9 0  0.4 0.9 0  0.5 0.9 0  0.6 0.9 0  0.7 0.9 0  0.8 0.9 0  0.9 0.9 0  1 0.9 0  1.1 0.9 0  1.2 0.9 0  1.3 0.9 0  1.4 0.9 0  1.5 0.9 0  1.6 0.9 0  1.7 0.9 0  1.8 0.9 0  1.9 0.9 0  2 0.9 0  2.1 0.9 0  2.2 0.9 0  2.3 0.9 0  2.4 0.9 0  2.5 0.9 0  2.6 0.9 0  2.7 0.9 0  2.8 0.9 0  2.9 0.9 0  3 0.9 0  3.1 0.9 0  3.2 0.9 0  3.3 0.9 0  3.4 0.9 0  3.5 0.9 0  3.6 0.9 0  3.7 0.9 0  3.8 0.9 0  3.9 0.9 0  4 0.9 0  4.1 0.9 0  4.2 0.9 0  4.3 0.9 0  4.4 0.9 0  4.5 0.9 0  4.6 0.9 0  4.7 0.9 0  4.8 0.9 0  4.9 0.9 0  5 0.9 0  0 1 0  0.1 1 0  0.2 1 0  0.3 1 0  0.4 1 0  0.5 1 0  0.6 1 0  0.7 1 0  0.8 1 0  0.9 1 0  1 1 0  1.1 1 0  1.2 1 0  1.3 1 0  1.4 1 0  1.5 1 0  1.6 1 0  1.7 1 0  1.8 1 0  1.9 1 0  2 1 0  2.1 1 0  2.2 1 0  2.3 1 0  2.4 1 0  2.5 1 0  2.6 1 0  2.7 1 0  2.8 1 0  2.9 1 0  3 1 0  3.1 1 0  3.2 1 0  3.3 1 0  3.4 1 0  3.5 1 0  3.6 1 0  3.7 1 0  3.8 1 0  3.9 1 0  4 1 0  4.1 1 0  4.2 1 0  4.3 1 0  4.4 1 0  4.5 1 0  4.6 1 0  4.7 1 0  4.8 1 0  4.9 1 0  5 1 0  </DataArray>
</Points>
<Cells>
[...]
<PointData  Scalars="f_14-0-0"> 
<DataArray  type="Float64"  Name="f_14-0-0"  format="ascii">0.0000000000000000e+00  0.0000000000000000e+00  0.0000000000000000e+00  0.0000000000000000e+00  0.0000000000000000e+00  0.0000000000000000e+00  0.0000000000000000e+00  0.0000000000000000e+00  0.0000000000000000e+00  0.0000000000000000e+00  0.0000000000000000e+00  0.0000000000000000e+00  0.0000000000000000e+00  0.0000000000000000e+00  0.0000000000000000e+00  0.0000000000000000e+00  0.0000000000000000e+00  0.0000000000000000e+00  0.0000000000000000e+00  0.0000000000000000e+00  0.0000000000000000e+00  0.0000000000000000e+00  0.0000000000000000e+00  0.0000000000000000e+00  0.0000000000000000e+00  0.0000000000000000e+00  0.0000000000000000e+00  0.0000000000000000e+00  0.0000000000000000e+00  0.0000000000000000e+00  0.0000000000000000e+00  0.0000000000000000e+00  0.0000000000000000e+00  0.0000000000000000e+00  0.0000000000000000e+00  0.0000000000000000e+00  0.0000000000000000e+00  0.0000000000000000e+00  0.0000000000000000e+00  0.0000000000000000e+00  0.0000000000000000e+00  0.0000000000000000e+00  0.0000000000000000e+00  0.0000000000000000e+00  0.0000000000000000e+00  0.0000000000000000e+00  0.0000000000000000e+00  0.0000000000000000e+00  0.0000000000000000e+00  0.0000000000000000e+00  0.0000000000000000e+00  9.9999999999977982e-02  9.9999999999979508e-02  9.9999999999981035e-02  9.9999999999982242e-02  9.9999999999983741e-02  9.9999999999984879e-02  9.9999999999986142e-02  9.9999999999987418e-02  9.9999999999988487e-02  9.9999999999989667e-02  9.9999999999990888e-02  9.9999999999991998e-02  9.9999999999993275e-02  9.9999999999994607e-02  9.9999999999995606e-02  9.9999999999996689e-02  9.9999999999997646e-02  9.9999999999998868e-02  9.9999999999999950e-02  1.0000000000000114e-01  1.0000000000000207e-01  1.0000000000000298e-01  1.0000000000000443e-01  1.0000000000000560e-01  1.0000000000000678e-01  1.0000000000000805e-01  1.0000000000000908e-01  1.0000000000001008e-01  1.0000000000001132e-01  1.0000000000001247e-01  1.0000000000001351e-01  1.0000000000001451e-01  1.0000000000001547e-01  1.0000000000001683e-01  1.0000000000001774e-01  1.0000000000001896e-01  1.0000000000001989e-01  1.0000000000002118e-01  1.0000000000002235e-01  1.0000000000002347e-01  1.0000000000002457e-01  1.0000000000002549e-01  1.0000000000002650e-01  1.0000000000002747e-01  1.0000000000002847e-01  1.0000000000002952e-01  1.0000000000003073e-01  1.0000000000003205e-01  1.0000000000003319e-01  1.0000000000003463e-01  1.0000000000003625e-01  1.9999999999996362e-01  1.9999999999996554e-01  1.9999999999996781e-01  1.9999999999996990e-01  1.9999999999997228e-01  1.9999999999997442e-01  1.9999999999997628e-01  1.9999999999997845e-01  1.9999999999998039e-01  1.9999999999998277e-01  1.9999999999998486e-01  1.9999999999998708e-01  1.9999999999998919e-01  1.9999999999999127e-01  1.9999999999999316e-01  1.9999999999999532e-01  1.9999999999999712e-01  1.9999999999999890e-01  2.0000000000000101e-01  2.0000000000000273e-01  2.0000000000000473e-01  2.0000000000000689e-01  2.0000000000000873e-01  2.0000000000001103e-01  2.0000000000001331e-01  2.0000000000001514e-01  2.0000000000001697e-01  2.0000000000001888e-01  2.0000000000002119e-01  2.0000000000002299e-01  2.0000000000002494e-01  2.0000000000002702e-01  2.0000000000002918e-01  2.0000000000003088e-01  2.0000000000003312e-01  2.0000000000003487e-01  2.0000000000003698e-01  2.0000000000003912e-01  2.0000000000004095e-01  2.0000000000004267e-01  2.0000000000004470e-01  2.0000000000004634e-01  2.0000000000004817e-01  2.0000000000005014e-01  2.0000000000005244e-01  2.0000000000005402e-01  2.0000000000005611e-01  2.0000000000005810e-01  2.0000000000006032e-01  2.0000000000006260e-01  2.0000000000006476e-01  2.9999999999995530e-01  2.9999999999995736e-01  2.9999999999995997e-01  2.9999999999996252e-01  2.9999999999996502e-01  2.9999999999996774e-01  2.9999999999997062e-01  2.9999999999997351e-01  2.9999999999997623e-01  2.9999999999997917e-01  2.9999999999998161e-01  2.9999999999998489e-01  2.9999999999998744e-01  2.9999999999998994e-01  2.9999999999999266e-01  2.9999999999999533e-01  2.9999999999999821e-01  3.0000000000000043e-01  3.0000000000000238e-01  3.0000000000000532e-01  3.0000000000000787e-01  3.0000000000001076e-01  3.0000000000001337e-01  3.0000000000001564e-01  3.0000000000001836e-01  3.0000000000002097e-01  3.0000000000002386e-01  3.0000000000002658e-01  3.0000000000002941e-01  3.0000000000003169e-01  3.0000000000003441e-01  3.0000000000003701e-01  3.0000000000003968e-01  3.0000000000004168e-01  3.0000000000004462e-01  3.0000000000004690e-01  3.0000000000004989e-01  3.0000000000005256e-01  3.0000000000005528e-01  3.0000000000005755e-01  3.0000000000006011e-01  3.0000000000006261e-01  3.0000000000006483e-01  3.0000000000006749e-01  3.0000000000007027e-01  3.0000000000007293e-01  3.0000000000007515e-01  3.0000000000007809e-01  3.0000000000008087e-01  3.0000000000008359e-01  3.0000000000008653e-01  3.9999999999995151e-01  3.9999999999995428e-01  3.9999999999995667e-01  3.9999999999995933e-01  3.9999999999996222e-01  3.9999999999996527e-01  3.9999999999996860e-01  3.9999999999997138e-01  3.9999999999997493e-01  3.9999999999997793e-01  3.9999999999998148e-01  3.9999999999998376e-01  3.9999999999998676e-01  3.9999999999999042e-01  3.9999999999999303e-01  3.9999999999999591e-01  3.9999999999999952e-01  4.0000000000000274e-01  4.0000000000000518e-01  4.0000000000000785e-01  4.0000000000001057e-01  4.0000000000001368e-01  4.0000000000001651e-01  4.0000000000001934e-01  4.0000000000002223e-01  4.0000000000002556e-01  4.0000000000002861e-01  4.0000000000003194e-01  4.0000000000003461e-01  4.0000000000003760e-01  4.0000000000004104e-01  4.0000000000004410e-01  4.0000000000004665e-01  4.0000000000004976e-01  4.0000000000005170e-01  4.0000000000005537e-01  4.0000000000005853e-01  4.0000000000006153e-01  4.0000000000006430e-01  4.0000000000006736e-01  4.0000000000007058e-01  4.0000000000007324e-01  4.0000000000007702e-01  4.0000000000007946e-01  4.0000000000008340e-01  4.0000000000008601e-01  4.0000000000008906e-01  4.0000000000009150e-01  4.0000000000009522e-01  4.0000000000009739e-01  4.0000000000010061e-01  4.9999999999995132e-01  4.9999999999995426e-01  4.9999999999995715e-01  4.9999999999996042e-01  4.9999999999996259e-01  4.9999999999996597e-01  4.9999999999996814e-01  4.9999999999997224e-01  4.9999999999997580e-01  4.9999999999997879e-01  4.9999999999998251e-01  4.9999999999998518e-01  4.9999999999998823e-01  4.9999999999999145e-01  4.9999999999999456e-01  4.9999999999999806e-01  5.0000000000000078e-01  5.0000000000000377e-01  5.0000000000000744e-01  5.0000000000000977e-01  5.0000000000001321e-01  5.0000000000001599e-01  5.0000000000001954e-01  5.0000000000002209e-01  5.0000000000002531e-01  5.0000000000002831e-01  5.0000000000003164e-01  5.0000000000003542e-01  5.0000000000003808e-01  5.0000000000004130e-01  5.0000000000004430e-01  5.0000000000004707e-01  5.0000000000005063e-01  5.0000000000005329e-01  5.0000000000005684e-01  5.0000000000005940e-01  5.0000000000006306e-01  5.0000000000006606e-01  5.0000000000006928e-01  5.0000000000007250e-01  5.0000000000007538e-01  5.0000000000007860e-01  5.0000000000008193e-01  5.0000000000008560e-01  5.0000000000008837e-01  5.0000000000009259e-01  5.0000000000009603e-01  5.0000000000009936e-01  5.0000000000010147e-01  5.0000000000010436e-01  5.0000000000010847e-01  5.9999999999995457e-01  5.9999999999995735e-01  5.9999999999996023e-01  5.9999999999996290e-01  5.9999999999996623e-01  5.9999999999996867e-01  5.9999999999997333e-01  5.9999999999997489e-01  5.9999999999997866e-01  5.9999999999998088e-01  5.9999999999998455e-01  5.9999999999998688e-01  5.9999999999999054e-01  5.9999999999999265e-01  5.9999999999999676e-01  6.0000000000000009e-01  6.0000000000000175e-01  6.0000000000000586e-01  6.0000000000000808e-01  6.0000000000001186e-01  6.0000000000001430e-01  6.0000000000001852e-01  6.0000000000002052e-01  6.0000000000002374e-01  6.0000000000002629e-01  6.0000000000002940e-01  6.0000000000003206e-01  6.0000000000003550e-01  6.0000000000003906e-01  6.0000000000004172e-01  6.0000000000004439e-01  6.0000000000004772e-01  6.0000000000005027e-01  6.0000000000005316e-01  6.0000000000005604e-01  6.0000000000005982e-01  6.0000000000006326e-01  6.0000000000006593e-01  6.0000000000006903e-01  6.0000000000007214e-01  6.0000000000007492e-01  6.0000000000007825e-01  6.0000000000008147e-01  6.0000000000008491e-01  6.0000000000008802e-01  6.0000000000009157e-01  6.0000000000009468e-01  6.0000000000009701e-01  6.0000000000010034e-01  6.0000000000010245e-01  6.0000000000010623e-01  6.9999999999996043e-01  6.9999999999996354e-01  6.9999999999996654e-01  6.9999999999996909e-01  6.9999999999997164e-01  6.9999999999997498e-01  6.9999999999997720e-01  6.9999999999997875e-01  6.9999999999998141e-01  6.9999999999998441e-01  6.9999999999998697e-01  6.9999999999998908e-01  6.9999999999999230e-01  6.9999999999999540e-01  6.9999999999999851e-01  7.0000000000000084e-01  7.0000000000000473e-01  7.0000000000000662e-01  7.0000000000000928e-01  7.0000000000001150e-01  7.0000000000001361e-01  7.0000000000001683e-01  7.0000000000001938e-01  7.0000000000002249e-01  7.0000000000002582e-01  7.0000000000002782e-01  7.0000000000003049e-01  7.0000000000003282e-01  7.0000000000003559e-01  7.0000000000003781e-01  7.0000000000004114e-01  7.0000000000004281e-01  7.0000000000004525e-01  7.0000000000004858e-01  7.0000000000005125e-01  7.0000000000005402e-01  7.0000000000005647e-01  7.0000000000005991e-01  7.0000000000006213e-01  7.0000000000006524e-01  7.0000000000006868e-01  7.0000000000007023e-01  7.0000000000007401e-01  7.0000000000007612e-01  7.0000000000007889e-01  7.0000000000008211e-01  7.0000000000008400e-01  7.0000000000008655e-01  7.0000000000008922e-01  7.0000000000009122e-01  7.0000000000009632e-01  7.9999999999997085e-01  7.9999999999997307e-01  7.9999999999997451e-01  7.9999999999997706e-01  7.9999999999997917e-01  7.9999999999998095e-01  7.9999999999998417e-01  7.9999999999998550e-01  7.9999999999998817e-01  7.9999999999998950e-01  7.9999999999999161e-01  7.9999999999999372e-01  7.9999999999999605e-01  7.9999999999999716e-01  7.9999999999999927e-01  8.0000000000000127e-01  8.0000000000000371e-01  8.0000000000000560e-01  8.0000000000000804e-01  8.0000000000001015e-01  8.0000000000001192e-01  8.0000000000001437e-01  8.0000000000001614e-01  8.0000000000001803e-01  8.0000000000001981e-01  8.0000000000002236e-01  8.0000000000002358e-01  8.0000000000002491e-01  8.0000000000002758e-01  8.0000000000003102e-01  8.0000000000003213e-01  8.0000000000003357e-01  8.0000000000003568e-01  8.0000000000003813e-01  8.0000000000003979e-01  8.0000000000004212e-01  8.0000000000004445e-01  8.0000000000004723e-01  8.0000000000004878e-01  8.0000000000005111e-01  8.0000000000005322e-01  8.0000000000005600e-01  8.0000000000005855e-01  8.0000000000005977e-01  8.0000000000006155e-01  8.0000000000006377e-01  8.0000000000006499e-01  8.0000000000006899e-01  8.0000000000007077e-01  8.0000000000007354e-01  8.0000000000007643e-01  8.9999999999998237e-01  8.9999999999998437e-01  8.9999999999998603e-01  8.9999999999998759e-01  8.9999999999998870e-01  8.9999999999999003e-01  8.9999999999999070e-01  8.9999999999999314e-01  8.9999999999999425e-01  8.9999999999999558e-01  8.9999999999999492e-01  8.9999999999999658e-01  8.9999999999999758e-01  8.9999999999999836e-01  8.9999999999999991e-01  9.0000000000000124e-01  9.0000000000000091e-01  9.0000000000000435e-01  9.0000000000000480e-01  9.0000000000000713e-01  9.0000000000000779e-01  9.0000000000000879e-01  9.0000000000001068e-01  9.0000000000001223e-01  9.0000000000001201e-01  9.0000000000001357e-01  9.0000000000001334e-01  9.0000000000001434e-01  9.0000000000001645e-01  9.0000000000001679e-01  9.0000000000001690e-01  9.0000000000001990e-01  9.0000000000001923e-01  9.0000000000002278e-01  9.0000000000002234e-01  9.0000000000002400e-01  9.0000000000002589e-01  9.0000000000002611e-01  9.0000000000002722e-01  9.0000000000002900e-01  9.0000000000003044e-01  9.0000000000003189e-01  9.0000000000003300e-01  9.0000000000003277e-01  9.0000000000003533e-01  9.0000000000003577e-01  9.0000000000003710e-01  9.0000000000003832e-01  9.0000000000003921e-01  9.0000000000003977e-01  9.0000000000004177e-01  1.0000000000000000e+00  1.0000000000000004e+00  9.9999999999999978e-01  9.9999999999999922e-01  1.0000000000000000e+00  9.9999999999999911e-01  9.9999999999999778e-01  9.9999999999999700e-01  1.0000000000000004e+00  1.0000000000000009e+00  1.0000000000000004e+00  9.9999999999999911e-01  9.9999999999999944e-01  9.9999999999999878e-01  9.9999999999999856e-01  9.9999999999999967e-01  1.0000000000000002e+00  9.9999999999999922e-01  1.0000000000000002e+00  1.0000000000000009e+00  1.0000000000000002e+00  9.9999999999999789e-01  9.9999999999999956e-01  9.9999999999999922e-01  9.9999999999999911e-01  9.9999999999999845e-01  1.0000000000000000e+00  9.9999999999999989e-01  1.0000000000000013e+00  1.0000000000000004e+00  9.9999999999999845e-01  9.9999999999999944e-01  1.0000000000000002e+00  9.9999999999999756e-01  1.0000000000000002e+00  9.9999999999999911e-01  9.9999999999999944e-01  1.0000000000000009e+00  9.9999999999999978e-01  9.9999999999999778e-01  9.9999999999999922e-01  9.9999999999999800e-01  9.9999999999999911e-01  1.0000000000000002e+00  9.9999999999999978e-01  9.9999999999999922e-01  9.9999999999999878e-01  9.9999999999999967e-01  1.0000000000000000e+00  1.0000000000000000e+00  1.0000000000000022e+00  </DataArray> 
</PointData> 
</Piece>
</UnstructuredGrid>
</VTKFile>