<?xml version="1.0"?>
<VTKFile type="UnstructuredGrid"  version="0.1"  >
<UnstructuredGrid>
<Piece  NumberOfPoints="1001" NumberOfCells="1000">
<Points>
<DataArray  type="Float64"  NumberOfComponents="3"  format="ascii">0 0 0  0.001 0 0  0.002 0 0  0.003 0 0  0.004 0 0  0.005 0 0  0.006 0 0  0.007 0 0  0.008 0 0  0.008999999999999999 0 0  0.01 0 0  0.011 0 0  0.012 0 0  0.013 0 0  0.014 0 0  0.015 0 0  0.016 0 0  0.017 0 0  0.018 0 0  0.019 0 0  0.02 0 0  0.021 0 0  0.022 0 0  0.023 0 0  0.024 0 0  0.025 0 0  0.026 0 0  0.027 0 0  0.028 0 0  0.029 0 0  0.03 0 0  0.031 0 0  0.032 0 0  0.033 0 0  0.034 0 0  0.035 0 0  0.036 0 0  0.037 0 0  0.038 0 0  0.039 0 0  0.04 0 0  0.041 0 0  0.042 0 0  0.043 0 0  0.044 0 0  0.045 0 0  0.046 0 0  0.047 0 0  0.048 0 0  0.049 0 0  0.05 0 0  0.051 0 0  0.052 0 0  0.053 0 0  0.054 0 0  0.055 0 0  0.056 0 0  0.057 0 0  0.058 0 0  0.059 0 0  0.06 0 0  0.061 0 0  0.062 0 0  0.063 0 0  0.064 0 0  0.065 0 0  0.066 0 0  0.067 0 0  0.068 0 0  0.06900000000000001 0 0  0.07000000000000001 0 0  0.07099999999999999 0 0  0.07199999999999999 0 0  0.073 0 0  0.074 0 0  0.075 0 0  0.076 0 0  0.077 0 0  0.078 0 0  0.079 0 0  0.08 0 0  0.081 0 0  0.082 0 0  0.083 0 0  0.08400000000000001 0 0  0.08500000000000001 0 0  0.08599999999999999 0 0  0.08699999999999999 0 0  0.08799999999999999 0 0  0.089 0 0  0.09 0 0  0.091 0 0  0.092 0 0  0.093 0 0  0.094 0 0  0.095 0 0  0.096 0 0  0.097 0 0  0.098 0 0  0.099 0 0  0.1 0 0  0.101 0 0  0.102 0 0  0.103 0 0  0.104 0 0  0.105 0 0  0.106 0 0  0.107 0 0  0.108 0 0  0.109 0 0  0.11 0 0  0.111 0 0  0.112 0 0  0.113 0 0  0.114 0 0  0.115 0 0  0.116 0 0  0.117 0 0  0.118 0 0  0.119 0 0  0.12 0 0  0.121 0 0  0.122 0 0  0.123 0 0  0.124 0 0  0.125 0 0  0.126 0 0  0.127 0 0  0.128 0 0  0.129 0 0  0.13 0 0  0.131 0 0  0.132 0 0  0.133 0 0  0.134 0 0  0.135 0 0  0.136 0 0  0.137 0 0  0.138 0 0  0.139 0 0  0.14 0 0  0.141 0 0  0.142 0 0  0.143 0 0  0.144 0 0  0.145 0 0  0.146 0 0  0.147 0 0  0.148 0 0  0.149 0 0  0.15 0 0  0.151 0 0  0.152 0 0  0.153 0 0  0.154 0 0  0.155 0 0  0.156 0 0  0.157 0 0  0.158 0 0  0.159 0 0  0.16 0 0  0.161 0 0  0.162 0 0  0.163 0 0  0.164 0 0  0.165 0 0  0.166 0 0  0.167 0 0  0.168 0 0  0.169 0 0  0.17 0 0  0.171 0 0  0.172 0 0  0.173 0 0  0.174 0 0  0.175 0 0  0.176 0 0  0.177 0 0  0.178 0 0  0.179 0 0  0.18 0 0  0.181 0 0  0.182 0 0  0.183 0 0  0.184 0 0  0.185 0 0  0.186 0 0  0.187 0 0  0.188 0 0  0.189 0 0  0.19 0 0  0.191 0 0  0.192 0 0  0.193 0 0  0.194 0 0  0.195 0 0  0.196 0 0  0.197 0 0  0.198 0 0  0.199 0 0  0.2 0 0  0.201 0 0  0.202 0 0  0.203 0 0  0.204 0 0  0.205 0 0  0.206 0 0  0.207 0 0  0.208 0 0  0.209 0 0  0.21 0 0  0.211 0 0  0.212 0 0  0.213 0 0  0.214 0 0  0.215 0 0  0.216 0 0  0.217 0 0  0.218 0 0  0.219 0 0  0.22 0 0  0.221 0 0  0.222 0 0  0.223 0 0  0.224 0 0  0.225 0 0  0.226 0 0  0.227 0 0  0.228 0 0  0.229 0 0  0.23 0 0  0.231 0 0  0.232 0 0  0.233 0 0  0.234 0 0  0.235 0 0  0.236 0 0  0.237 0 0  0.238 0 0  0.239 0 0  0.24 0 0  0.241 0 0  0.242 0 0  0.243 0 0  0.244 0 0  0.245 0 0  0.246 0 0  0.247 0 0  0.248 0 0  0.249 0 0  0.25 0 0  0.251 0 0  0.252 0 0  0.253 0 0  0.254 0 0  0.255 0 0  0.256 0 0  0.257 0 0  0.258 0 0  0.259 0 0  0.26 0 0  0.261 0 0  0.262 0 0  0.263 0 0  0.264 0 0  0.265 0 0  0.266 0 0  0.267 0 0  0.268 0 0  0.269 0 0  0.27 0 0  0.271 0 0  0.272 0 0  0.273 0 0  0.274 0 0  0.275 0 0  0.276 0 0  0.277 0 0  0.278 0 0  0.279 0 0  0.28 0 0  0.281 0 0  0.282 0 0  0.283 0 0  0.284 0 0  0.285 0 0  0.286 0 0  0.287 0 0  0.288 0 0  0.289 0 0  0.29 0 0  0.291 0 0  0.292 0 0  0.293 0 0  0.294 0 0  0.295 0 0  0.296 0 0  0.297 0 0  0.298 0 0  0.299 0 0  0.3 0 0  0.301 0 0  0.302 0 0  0.303 0 0  0.304 0 0  0.305 0 0  0.306 0 0  0.307 0 0  0.308 0 0  0.309 0 0  0.31 0 0  0.311 0 0  0.312 0 0  0.313 0 0  0.314 0 0  0.315 0 0  0.316 0 0  0.317 0 0  0.318 0 0  0.319 0 0  0.32 0 0  0.321 0 0  0.322 0 0  0.323 0 0  0.324 0 0  0.325 0 0  0.326 0 0  0.327 0 0  0.328 0 0  0.329 0 0  0.33 0 0  0.331 0 0  0.332 0 0  0.333 0 0  0.334 0 0  0.335 0 0  0.336 0 0  0.337 0 0  0.338 0 0  0.339 0 0  0.34 0 0  0.341 0 0  0.342 0 0  0.343 0 0  0.344 0 0  0.345 0 0  0.346 0 0  0.347 0 0  0.348 0 0  0.349 0 0  0.35 0 0  0.351 0 0  0.352 0 0  0.353 0 0  0.354 0 0  0.355 0 0  0.356 0 0  0.357 0 0  0.358 0 0  0.359 0 0  0.36 0 0  0.361 0 0  0.362 0 0  0.363 0 0  0.364 0 0  0.365 0 0  0.366 0 0  0.367 0 0  0.368 0 0  0.369 0 0  0.37 0 0  0.371 0 0  0.372 0 0  0.373 0 0  0.374 0 0  0.375 0 0  0.376 0 0  0.377 0 0  0.378 0 0  0.379 0 0  0.38 0 0  0.381 0 0  0.382 0 0  0.383 0 0  0.384 0 0  0.385 0 0  0.386 0 0  0.387 0 0  0.388 0 0  0.389 0 0  0.39 0 0  0.391 0 0  0.392 0 0  0.393 0 0  0.394 0 0  0.395 0 0  0.396 0 0  0.397 0 0  0.398 0 0  0.399 0 0  0.4 0 0  0.401 0 0  0.402 0 0  0.403 0 0  0.404 0 0  0.405 0 0  0.406 0 0  0.407 0 0  0.408 0 0  0.409 0 0  0.41 0 0  0.411 0 0  0.412 0 0  0.413 0 0  0.414 0 0  0.415 0 0  0.416 0 0  0.417 0 0  0.418 0 0  0.419 0 0  0.42 0 0  0.421 0 0  0.422 0 0  0.423 0 0  0.424 0 0  0.425 0 0  0.426 0 0  0.427 0 0  0.428 0 0  0.429 0 0  0.43 0 0  0.431 0 0  0.432 0 0  0.433 0 0  0.434 0 0  0.435 0 0  0.436 0 0  0.437 0 0  0.438 0 0  0.439 0 0  0.44 0 0  0.441 0 0  0.442 0 0  0.443 0 0  0.444 0 0  0.445 0 0  0.446 0 0  0.447 0 0  0.448 0 0  0.449 0 0  0.45 0 0  0.451 0 0  0.452 0 0  0.453 0 0  0.454 0 0  0.455 0 0  0.456 0 0  0.457 0 0  0.458 0 0  0.459 0 0  0.46 0 0  0.461 0 0  0.462 0 0  0.463 0 0  0.464 0 0  0.465 0 0  0.466 0 0  0.467 0 0  0.468 0 0  0.469 0 0  0.47 0 0  0.471 0 0  0.472 0 0  0.473 0 0  0.474 0 0  0.475 0 0  0.476 0 0  0.477 0 0  0.478 0 0  0.479 0 0  0.48 0 0  0.481 0 0  0.482 0 0  0.483 0 0  0.484 0 0  0.485 0 0  0.486 0 0  0.487 0 0  0.488 0 0  0.489 0 0  0.49 0 0  0.491 0 0  0.492 0 0  0.493 0 0  0.494 0 0  0.495 0 0  0.496 0 0  0.497 0 0  0.498 0 0  0.499 0 0  0.5 0 0  0.501 0 0  0.502 0 0  0.503 0 0  0.504 0 0  0.505 0 0  0.506 0 0  0.507 0 0  0.508 0 0  0.509 0 0  0.51 0 0  0.511 0 0  0.512 0 0  0.513 0 0  0.514 0 0  0.515 0 0  0.516 0 0  0.517 0 0  0.518 0 0  0.519 0 0  0.52 0 0  0.521 0 0  0.522 0 0  0.523 0 0  0.524 0 0  0.525 0 0  0.526 0 0  0.527 0 0  0.528 0 0  0.529 0 0  0.53 0 0  0.531 0 0  0.532 0 0  0.533 0 0  0.534 0 0  0.535 0 0  0.536 0 0  0.537 0 0  0.538 0 0  0.539 0 0  0.54 0 0  0.541 0 0  0.542 0 0  0.543 0 0  0.544 0 0  0.545 0 0  0.546 0 0  0.547 0 0  0.548 0 0  0.549 0 0  0.55 0 0  0.551 0 0  0.552 0 0  0.553 0 0  0.554 0 0  0.555 0 0  0.556 0 0  0.5570000000000001 0 0  0.5580000000000001 0 0  0.5590000000000001 0 0  0.5600000000000001 0 0  0.5610000000000001 0 0  0.5620000000000001 0 0  0.5629999999999999 0 0  0.5639999999999999 0 0  0.5649999999999999 0 0  0.5659999999999999 0 0  0.5669999999999999 0 0  0.5679999999999999 0 0  0.569 0 0  0.57 0 0  0.571 0 0  0.572 0 0  0.573 0 0  0.574 0 0  0.575 0 0  0.576 0 0  0.577 0 0  0.578 0 0  0.579 0 0  0.58 0 0  0.581 0 0  0.582 0 0  0.583 0 0  0.584 0 0  0.585 0 0  0.586 0 0  0.587 0 0  0.588 0 0  0.589 0 0  0.59 0 0  0.591 0 0  0.592 0 0  0.593 0 0  0.594 0 0  0.595 0 0  0.596 0 0  0.597 0 0  0.598 0 0  0.599 0 0  0.6 0 0  0.601 0 0  0.602 0 0  0.603 0 0  0.604 0 0  0.605 0 0  0.606 0 0  0.607 0 0  0.608 0 0  0.609 0 0  0.61 0 0  0.611 0 0  0.612 0 0  0.613 0 0  0.614 0 0  0.615 0 0  0.616 0 0  0.617 0 0  0.618 0 0  0.619 0 0  0.62 0 0  0.621 0 0  0.622 0 0  0.623 0 0  0.624 0 0  0.625 0 0  0.626 0 0  0.627 0 0  0.628 0 0  0.629 0 0  0.63 0 0  0.631 0 0  0.632 0 0  0.633 0 0  0.634 0 0  0.635 0 0  0.636 0 0  0.637 0 0  0.638 0 0  0.639 0 0  0.64 0 0  0.641 0 0  0.642 0 0  0.643 0 0  0.644 0 0  0.645 0 0  0.646 0 0  0.647 0 0  0.648 0 0  0.649 0 0  0.65 0 0  0.651 0 0  0.652 0 0  0.653 0 0  0.654 0 0  0.655 0 0  0.656 0 0  0.657 0 0  0.658 0 0  0.659 0 0  0.66 0 0  0.661 0 0  0.662 0 0  0.663 0 0  0.664 0 0  0.665 0 0  0.666 0 0  0.667 0 0  0.668 0 0  0.669 0 0  0.67 0 0  0.671 0 0  0.672 0 0  0.673 0 0  0.674 0 0  0.675 0 0  0.676 0 0  0.677 0 0  0.678 0 0  0.679 0 0  0.68 0 0  0.681 0 0  0.6820000000000001 0 0  0.6830000000000001 0 0  0.6840000000000001 0 0  0.6850000000000001 0 0  0.6860000000000001 0 0  0.6870000000000001 0 0  0.6879999999999999 0 0  0.6889999999999999 0 0  0.6899999999999999 0 0  0.6909999999999999 0 0  0.6919999999999999 0 0  0.6929999999999999 0 0  0.694 0 0  0.695 0 0  0.696 0 0  0.697 0 0  0.698 0 0  0.699 0 0  0.7 0 0  0.701 0 0  0.702 0 0  0.703 0 0  0.704 0 0  0.705 0 0  0.706 0 0  0.707 0 0  0.708 0 0  0.709 0 0  0.71 0 0  0.711 0 0  0.712 0 0  0.713 0 0  0.714 0 0  0.715 0 0  0.716 0 0  0.717 0 0  0.718 0 0  0.719 0 0  0.72 0 0  0.721 0 0  0.722 0 0  0.723 0 0  0.724 0 0  0.725 0 0  0.726 0 0  0.727 0 0  0.728 0 0  0.729 0 0  0.73 0 0  0.731 0 0  0.732 0 0  0.733 0 0  0.734 0 0  0.735 0 0  0.736 0 0  0.737 0 0  0.738 0 0  0.739 0 0  0.74 0 0  0.741 0 0  0.742 0 0  0.743 0 0  0.744 0 0  0.745 0 0  0.746 0 0  0.747 0 0  0.748 0 0  0.749 0 0  0.75 0 0  0.751 0 0  0.752 0 0  0.753 0 0  0.754 0 0  0.755 0 0  0.756 0 0  0.757 0 0  0.758 0 0  0.759 0 0  0.76 0 0  0.761 0 0  0.762 0 0  0.763 0 0  0.764 0 0  0.765 0 0  0.766 0 0  0.767 0 0  0.768 0 0  0.769 0 0  0.77 0 0  0.771 0 0  0.772 0 0  0.773 0 0  0.774 0 0  0.775 0 0  0.776 0 0  0.777 0 0  0.778 0 0  0.779 0 0  0.78 0 0  0.781 0 0  0.782 0 0  0.783 0 0  0.784 0 0  0.785 0 0  0.786 0 0  0.787 0 0  0.788 0 0  0.789 0 0  0.79 0 0  0.791 0 0  0.792 0 0  0.793 0 0  0.794 0 0  0.795 0 0  0.796 0 0  0.797 0 0  0.798 0 0  0.799 0 0  0.8 0 0  0.801 0 0  0.802 0 0  0.803 0 0  0.804 0 0  0.805 0 0  0.806 0 0  0.8070000000000001 0 0  0.8080000000000001 0 0  0.8090000000000001 0 0  0.8100000000000001 0 0  0.8110000000000001 0 0  0.8120000000000001 0 0  0.8129999999999999 0 0  0.8139999999999999 0 0  0.8149999999999999 0 0  0.8159999999999999 0 0  0.8169999999999999 0 0  0.8179999999999999 0 0  0.819 0 0  0.82 0 0  0.821 0 0  0.822 0 0  0.823 0 0  0.824 0 0  0.825 0 0  0.826 0 0  0.827 0 0  0.828 0 0  0.829 0 0  0.83 0 0  0.831 0 0  0.832 0 0  0.833 0 0  0.834 0 0  0.835 0 0  0.836 0 0  0.837 0 0  0.838 0 0  0.839 0 0  0.84 0 0  0.841 0 0  0
[...]
<PointData  Scalars="f_8"> 
<DataArray  type="Float64"  Name="f_8"  format="ascii">8.0001899164838799e-05  8.0005899243187228e-05  8.0017899378794261e-05  8.0037899274335139e-05  8.0065898436457893e-05  8.0101896177733935e-05  8.0145891618589384e-05  8.0197883689217170e-05  8.0257871131470074e-05  8.0325852500734882e-05  8.0401826167788049e-05  8.0485790320632735e-05  8.0577742966317711e-05  8.0677681932737994e-05  8.0785604870417730e-05  8.0901509254275268e-05  8.1025392385370673e-05  8.1157251392635843e-05  8.1297083234587467e-05  8.1444884701022919e-05  8.1600652414699242e-05  8.1764382832995419e-05  8.1936072249558139e-05  8.2115716795931268e-05  8.2303312443168968e-05  8.2498855003432863e-05  8.2702340131573157e-05  8.2913763326694358e-05  8.3133119933705062e-05  8.3360405144852523e-05  8.3595614001241806e-05  8.3838741394340132e-05  8.4089782067465883e-05  8.4348730617262965e-05  8.4615581495160551e-05  8.4890329008818205e-05  8.5172967323556735e-05  8.5463490463774701e-05  8.5761892314350862e-05  8.6068166622032716e-05  8.6382306996811192e-05  8.6704306913281683e-05  8.7034159711991483e-05  8.7371858600773989e-05  8.7717396656069319e-05  8.8070766824232112e-05  8.8431961922826122e-05  8.8800974641906085e-05  8.9177797545286584e-05  8.9562423071798657e-05  8.9954843536533497e-05  9.0355051132074132e-05  9.0763037929714679e-05  9.1178795880667360e-05  9.1602316817257848e-05  9.2033592454108360e-05  9.2472614389309236e-05  9.2919374105578705e-05  9.3373862971411184e-05  9.3836072242214205e-05  9.4305993061433906e-05  9.4783616461669421e-05  9.5268933365776130e-05  9.5761934587958015e-05  9.6262610834849059e-05  9.6770952706583976e-05  9.7286950697858196e-05  9.7810595198977331e-05  9.8341876496896261e-05  9.8880784776247881e-05  9.9427310120361515e-05  9.9981442512271309e-05  1.0054317183571454e-04  1.0111248787611992e-04  1.0168938032158628e-04  1.0227383876385138e-04  1.0286585269925105e-04  1.0346541152966888e-04  1.0407250456347636e-04  1.0468712101646379e-04  1.0530925001276188e-04  1.0593888058575415e-04  1.0657600167898031e-04  1.0722060214703058e-04  1.0787267075643119e-04  1.0853219618652111e-04  1.0919916703031991e-04  1.0987357179538704e-04  1.1055539890467275e-04  1.1124463669736023e-04  1.1194127342969976e-04  1.1264529727583411e-04  1.1335669632861610e-04  1.1407545860041788e-04  1.1480157202393220e-04  1.1553502445296562e-04  1.1627580366322400e-04  1.1702389735309000e-04  1.1777929314439297e-04  1.1854197858317110e-04  1.1931194114042614e-04  1.2008916821287045e-04  1.2087364712366668e-04  1.2166536512316008e-04  1.2246430938960353e-04  1.2327046702987547e-04  1.2408382508019054e-04  1.2490437050680317e-04  1.2573209020670431e-04  1.2656697100831110e-04  1.2740899967214972e-04  1.2825816289153144e-04  1.2911444729322202e-04  1.2997783943810427e-04  1.3084832582183423e-04  1.3172589287549082e-04  1.3261052696621886e-04  1.3350221439786583e-04  1.3440094141161223e-04  1.3530669418659587e-04  1.3621945884052941e-04  1.3713922143031255e-04  1.3806596795263757e-04  1.3899968434458895e-04  1.3994035648423719e-04  1.4088797019122659e-04  1.4184251122735723e-04  1.4280396529716113e-04  1.4377231804847267e-04  1.4474755507299362e-04  1.4572966190685193e-04  1.4671862403115572e-04  1.4771442687254118e-04  1.4871705580371531e-04  1.4972649614399325e-04  1.5074273315983009e-04  1.5176575206534768e-04  1.5279553802285598e-04  1.5383207614336921e-04  1.5487535148711715e-04  1.5592534906405092e-04  1.5698205383434422e-04  1.5804545070888931e-04  1.5911552454978800e-04  1.6019226017083797e-04  1.6127564233801408e-04  1.6236565576994503e-04  1.6346228513838517e-04  1.6456551506868175e-04  1.6567533014023752e-04  1.6679171488696856e-04  1.6791465379775762e-04  1.6904413131690318e-04  1.7018013184456389e-04  1.7132263973719839e-04  1.7247163930800125e-04  1.7362711482733398e-04  1.7478905052315229e-04  1.7595743058142893e-04  1.7713223914657210e-04  1.7831346032184001e-04  1.7950107816975126e-04  1.8069507671249102e-04  1.8189543993231321e-04  1.8310215177193891e-04  1.8431519613495048e-04  1.8553455688618192e-04  1.8676021785210550e-04  1.8799216282121433e-04  1.8923037554440111e-04  1.9047483973533340e-04  1.9172553907082494e-04  1.9298245719120326e-04  1.9424557770067379e-04  1.9551488416768027e-04  1.9679036012526163e-04  1.9807198907140528e-04  1.9935975446939684e-04  2.0065363974816662e-04  2.0195362830263244e-04  2.0325970349403905e-04  2.0457184865029442e-04  2.0589004706630238e-04  2.0721428200429223e-04  2.0854453669414495e-04  2.0988079433371620e-04  2.1122303808915598e-04  2.1257125109522547e-04  2.1392541645561027e-04  2.1528551724323103e-04  2.1665153650055050e-04  2.1802345723987801e-04  2.1940126244367046e-04  2.2078493506483084e-04  2.2217445802700332e-04  2.2356981422486569e-04  2.2497098652441878e-04  2.2637795776327328e-04  2.2779071075093316e-04  2.2920922826907692e-04  2.3063349307183558e-04  2.3206348788606823e-04  2.3349919541163457e-04  2.3494059832166510e-04  2.3638767926282815e-04  2.3784042085559502e-04  2.3929880569450139e-04  2.4076281634840735e-04  2.4223243536075406e-04  2.4370764524981798e-04  2.4518842850896293e-04  2.4667476760688930e-04  2.4816664498788100e-04  2.4966404307204975e-04  2.5116694425557731e-04  2.5267533091095484e-04  2.5418918538722037e-04  2.5570849001019372e-04  2.5723322708270881e-04  2.5876337888484425e-04  2.6029892767415126e-04  2.6183985568587940e-04  2.6338614513319989e-04  2.6493777820742740e-04  2.6649473707823887e-04  2.6805700389389046e-04  2.6962456078143257e-04  2.7119738984692225e-04  2.7277547317563431e-04  2.7435879283226928e-04  2.7594733086116027e-04  2.7754106928647718e-04  2.7913999011242941e-04  2.8074407532346576e-04  2.8235330688447362e-04  2.8396766674097475e-04  2.8558713681932032e-04  2.8721169902688320e-04  2.8884133525224889e-04  2.9047602736540455e-04  2.9211575721792553e-04  2.9376050664316119e-04  2.9541025745641737e-04  2.9706499145513889e-04  2.9872469041908859e-04  3.0038933611052556e-04  3.0205891027438138e-04  3.0373339463843449e-04  3.0541277091348319e-04  3.0709702079351658e-04  3.0878612595588398e-04  3.1048006806146252e-04  3.1217882875482353e-04  3.1388238966439686e-04  3.1559073240263364e-04  3.1730383856616779e-04  3.1902168973597521e-04  3.2074426747753229e-04  3.2247155334097239e-04  3.2420352886124073e-04  3.2594017555824805e-04  3.2768147493702240e-04  3.2942740848785983e-04  3.3117795768647341e-04  3.3293310399414060e-04  3.3469282885784969e-04  3.3645711371044424e-04  3.3822593997076647e-04  3.3999928904379916e-04  3.4177714232080621e-04  3.4355948117947160e-04  3.4534628698403729e-04  3.4713754108543955e-04  3.4893322482144407e-04  3.5073331951677989e-04  3.5253780648327176e-04  3.5434666701997139e-04  3.5615988241328712e-04  3.5797743393711290e-04  3.5979930285295539e-04  3.6162547041006048e-04  3.6345591784553774e-04  3.6529062638448442e-04  3.6712957724010820e-04  3.6897275161384784e-04  3.7082013069549387e-04  3.7267169566330738e-04  3.7452742768413809e-04  3.7638730791354042e-04  3.7825131749588995e-04  3.8011943756449706e-04  3.8199164924172059e-04  3.8386793363908025e-04  3.8574827185736739e-04  3.8763264498675531e-04  3.8952103410690836e-04  3.9141342028708960e-04  3.9330978458626797e-04  3.9521010805322436e-04  3.9711437172665603e-04  3.9902255663528080e-04  4.0093464379793974e-04  4.0285061422369936e-04  4.0477044891195220e-04  4.0669412885251707e-04  4.0862163502573747e-04  4.1055294840258033e-04  4.1248804994473273e-04  4.1442692060469802e-04  4.1636954132589138e-04  4.1831589304273389e-04  4.2026595668074587e-04  4.2221971315663964e-04  4.2417714337841144e-04  4.2613822824543173e-04  4.2810294864853530e-04  4.3007128547011046e-04  4.3204321958418738e-04  4.3401873185652524e-04  4.3599780314469884e-04  4.3798041429818444e-04  4.3996654615844499e-04  4.4195617955901335e-04  4.4394929532557694e-04  4.4594587427605932e-04  4.4794589722070230e-04  4.4994934496214722e-04  4.5195619829551477e-04  4.5396643800848477e-04  4.5598004488137469e-04  4.5799699968721805e-04  4.6001728319184162e-04  4.6204087615394187e-04  4.6406775932516077e-04  4.6609791345016127e-04  4.6813131926670134e-04  4.7016795750570841e-04  4.7220780889135157e-04  4.7425085414111483e-04  4.7629707396586824e-04  4.7834644906993948e-04  4.8039896015118381e-04  4.8245458790105417e-04  4.8451331300467036e-04  4.8657511614088727e-04  4.8863997798236341e-04  4.9070787919562706e-04  4.9277880044114406e-04  4.9485272237338306e-04  4.9692962564088156e-04  4.9900949088631024e-04  5.0109229874653756e-04  5.0317802985269330e-04  5.0526666483023208e-04  5.0735818429899508e-04  5.0945256887327301e-04  5.1154979916186649e-04  5.1364985576814800e-04  5.1575271929012135e-04  5.1785837032048213e-04  5.1996678944667639e-04  5.2207795725095984e-04  5.2419185431045563e-04  5.2630846119721276e-04  5.2842775847826266e-04  5.3054972671567609e-04  5.3267434646661941e-04  5.3480159828341034e-04  5.3693146271357301e-04  5.3906392029989293e-04  5.4119895158047068e-04  5.4333653708877694e-04  5.4547665735370438e-04  5.4761929289962171e-04  5.4976442424642543e-04  5.5191203190959215e-04  5.5406209640023005e-04  5.5621459822512999e-04  5.5836951788681608e-04  5.6052683588359627e-04  5.6268653270961184e-04  5.6484858885488668e-04  5.6701298480537710e-04  5.6917970104301938e-04  5.7134871804577839e-04  5.7352001628769591e-04  5.7569357623893705e-04  5.7786937836583818e-04  5.8004740313095297e-04  5.8222763099309886e-04  5.8441004240740294e-04  5.8659461782534781e-04  5.8878133769481582e-04  5.9097018246013480e-04  5.9316113256212180e-04  5.9535416843812779e-04  5.9754927052208071e-04  5.9974641924452957e-04  6.0194559503268707e-04  6.0414677831047234e-04  6.0634994949855363e-04  6.0855508901438992e-04  6.1076217727227319e-04  6.1297119468336938e-04  6.1518212165575983e-04  6.1739493859448160e-04  6.1960962590156888e-04  6.2182616397609216e-04  6.2404453321419906e-04  6.2626471400915320e-04  6.2848668675137369e-04  6.3071043182847482e-04  6.3293592962530387e-04  6.3516316052398040e-04  6.3739210490393382e-04  6.3962274314194160e-04  6.4185505561216742e-04  6.4408902268619757e-04  6.4632462473307895e-04  6.4856184211935577e-04  6.5080065520910614e-04  6.5304104436397813e-04  6.5528298994322665e-04  6.5752647230374881e-04  6.5977147180012021e-04  6.6201796878462922e-04  6.6426594360731385e-04  6.6651537661599545e-04  6.6876624815631418e-04  6.7101853857176271e-04  6.7327222820372169e-04  6.7552729739149336e-04  6.7778372647233547e-04  6.8004149578149511e-04  6.8230058565224192e-04  6.8456097641590198e-04  6.8682264840189025e-04  6.8908558193774439e-04  6.9134975734915665e-04  6.9361515496000671e-04  6.9588175509239451e-04  6.9814953806667207e-04  7.0041848420147532e-04  7.0268857381375642e-04  7.0495978721881532e-04  7.0723210473033109e-04  7.0950550666039314e-04  7.1177997331953321e-04  7.1405548501675561e-04  7.1633202205956866e-04  7.1860956475401487e-04  7.2088809340470220e-04  7.2316758831483406e-04  7.2544802978623984e-04  7.2772939811940516e-04  7.3001167361350138e-04  7.3229483656641649e-04  7.3457886727478394e-04  7.3686374603401281e-04  7.3914945313831738e-04  7.4143596888074606e-04  7.4372327355321150e-04  7.4601134744651902e-04  7.4830017085039603e-04  7.5058972405352110e-04  7.5287998734355275e-04  7.5517094100715804e-04  7.5746256533004133e-04  7.5975484059697318e-04  7.6204774709181806e-04  7.6434126509756410e-04  7.6663537489634942e-04  7.6893005676949191e-04  7.7122529099751705e-04  7.7352105786018582e-04  7.7581733763652197e-04  7.7811411060484158e-04  7.8041135704277930e-04  7.8270905722731677e-04  7.8500719143481039e-04  7.8730573994101891e-04  7.8960468302113050e-04  7.9190400094979153e-04  7.9420367400113263e-04  7.9650368244879686e-04  7.9880400656596703e-04  8.0110462662539249e-04  8.0340552289941700e-04  8.0570667566000603e-04  8.0800806517877311e-04  8.1030967172700849e-04  8.1261147557570444e-04  8.1491345699558385e-04  8.1721559625712651e-04  8.1951787363059654e-04  8.2182026938606913e-04  8.2412276379345757e-04  8.2642533712254049e-04  8.2872796964298875e-04  8.3103064162439204e-04  8.3333333333628610e-04  8.3563602504818050e-04  8.3793869702958389e-04  8.4024132955003237e-04  8.4254390287911540e-04  8.4484639728650405e-04  8.4714879304197675e-04  8.4945107041544700e-04  8.5175320967698998e-04  8.5405519109686961e-04  8.5635699494556578e-04  8.5865860149380126e-04  8.6095999101256867e-04  8.6326114377315770e-04  8.6556204004718232e-04  8.6786266010660756e-04  8.7016298422377741e-04  8.7246299267144153e-04  8.7476266572278274e-04  8.7706198365144377e-04  8.7936092673155536e-04  8.8165947523776366e-04  8.8395760944525727e-04  8.8625530962979453e-04  8.8855255606773182e-04  8.9084932903605132e-04  8.9314560881238736e-04  8.9544137567505581e-04  8.9773660990308084e-04  9.0003129177622333e-04  9.0232540157500843e-04  9.0461891958075425e-04  9.0691182607559946e-04  9.0920410134253131e-04  9.1149572566541482e-04  9.1378667932902010e-04  9.1607694261905165e-04  9.1836649582217682e-04  9.2065531922605373e-04  9.2294339311936135e-04  9.2523069779182679e-04  9.2751721353425559e-04  9.2980292063855993e-04  9.3208779939778891e-04  9.3437183010615648e-04  9.3665499305907191e-04  9.3893726855316846e-04  9.4121863688633389e-04  9.4349907835774010e-04  9.4577857326787228e-04  9.4805710191855994e-04  9.5033464461300658e-04  9.5261118165581996e-04  9.5488669335304279e-04  9.5716116001218297e-04  9.5943456194224523e-04  9.6170687945376144e-04  9.6397809285882089e-04  9.6624818247110285e-04  9.6851712860590675e-04  9.7078491158018474e-04  9.7305151171257331e-04  9.7531690932342412e-04  9.7758108473483736e-04  9.7984401827069258e-04  9.8210569025668237e-04  9.8436608102034362e-04  9.8662517089109151e-04  9.8888294020025224e-04  9.9113936928109554e-04  9.9339443846886808e-04  9.9564812810082771e-04  9.9790041851627689e-04  1.0001512900565961e-03  1.0024007230652783e-03  1.0046486978879637e-03  1.0068951948724735e-03  1.0091401943688454e-03  1.0113836767293681e-03  1.0136256223086170e-03  1.0158660114634893e-03  1.0181048245532399e-03  1.0203420419395168e-03  1.0225776439863983e-03  1.0248116110604286e-03  1.0270439235306548e-03  1.0292745617686632e-03  1.0315035061486170e-03  1.0337307370472937e-03  1.0359562348441231e-03  1.0381799799212244e-03  1.0404019526634451e-03  1.0426221334583995e-03  1.0448405026965066e-03  1.0470570407710303e-03  1.0492717280781180e-03  1.0514845450168404e-03  1.0536954719892317e-03  1.0559044894003285e-03  1.0581115776582127e-03  1.0603167171740499e-03  1.0625198883621324e-03  1.0647210716399186e-03  1.0669202474280770e-03  1.0691173961505265e-03  1.0713124982344804e-03  1.0735055341104872e-03  1.0756964842124749e-03  1.0778853289777949e-03  1.0800720488472635e-03  1.0822566242652092e-03  1.0844390356795140e-03  1.0866192635416605e-03  1.0887972883067759e-03  1.0909730904336775e-03  1.0931466503849192e-03  1.0953179486268374e-03  1.0974869656295973e-03  1.0996536818672403e-03  1.1018180778177317e-03  1.1039801339630079e-03  1.1061398307890247e-03  1.1082971487858062e-03  1.1104520684474936e-03  1.1126045702723950e-03  1.1147546347630342e-03  1.1169022424262023e-03  1.1190473737730073e-03  1.1211900093189258e-03  1.1233301295838544e-03  1.1254677150921615e-03  1.1276027463727404e-03  1.1297352039590614e-03  1.1318650683892254e-03  1.1339923202060174e-03  1.1361169399569618e-03  1.1382389081943764e-03  1.1403582054754274e-03  1.1424748123621854e-03  1.1445887094216820e-03  1.1466998772259661e-03  1.1488082963521608e-03  1.1509139473825226e-03  1.1530168109044970e-03  1.1551168675107797e-03  1.1572140977993740e-03  1.1593084823736525e-03  1.1614000018424161e-03  1.1634886368199556e-03  1.1655743679261118e-03  1.1676571757863394e-03  1.1697370410317684e-03  1.1718139442992673e-03  1.1738878662315069e-03  1.1759587874770241e-03  1.1780266886902882e-03  1.1800915505317648e-03  1.1821533536679821e-03  1.1842120787715982e-03  1.1862677065214687e-03  1.1883202176027128e-03  1.1903695927067840e-03  1.1924158125315371e-03  1.1944588577813002e-03  1.1964987091669433e-03  1.1985353474059501e-03  1.2005687532224900e-03  1.2025989073474904e-03  1.2046257905187088e-03  1.2066493834808087e-03  1.2086696669854321e-03  1.2106866217912750e-03  1.2127002286641646e-03  1.2147104683771341e-03  1.2167173217105011e-03  1.2187207694519457e-03  1.2207207923965887e-03  1.2227173713470708e-03  1.2247104871136341e-03  1.2267001205142022e-03  1.2286862523744621e-03  1.2306688635279474e-03  1.2326479348161205e-03  1.2346234470884574e-03  1.2365953812025336e-03  1.2385637180241079e-03  1.2405284384272104e-03  1.2424895232942298e-03  1.2444469535160011e-03  1.2464007099918953e-03  1.2483507736299076e-03  1.2502971253467506e-03  1.2522397460679444e-03  1.2541786167279102e-03  1.2561137182700631e-03  1.2580450316469064e-03  1.2599725378201268e-03  1.2618962177606918e-03  1.2638160524489448e-03  1.2657320228747044e-03  1.2676441100373636e-03  1.2695522949459886e-03  1.2714565586194205e-03  1.2733568820863766e-03  1.2752532463855553e-03  1.2771456325657367e-03  1.2790340216858899e-03  1.2809183948152782e-03  1.2827987330335658e-03  1.2846750174309257e-03  1.2865472291081496e-03  1.2884153491767570e-03  1.2902793587591065e-03  1.2921392389885090e-03  1.2939949710093395e-03  1.2958465359771529e-03  1.2976939150587986e-03  1.2995370894325381e-03  1.3013760402881618e-03  1.3032107488271088e-03  1.3050411962625863e-03  1.3068673638196914e-03  1.3086892327355338e-03  1.3105067842593594e-03  1.3123199996526750e-03  1.3141288601893749e-03  1.3159333471558668e-03  1.3177334418512027e-03  1.3195291255872071e-03  1.3213203796886091e-03  1.3231071854931747e-03  1.3248895243518396e-03  1.3266673776288465e-03  1.3284407267018792e-03  1.3302095529622014e-03  1.3319738378147958e-03  1.3337335626785046e-03  1.3354887089861718e-03  1.3372392581847848e-03  1.3389851917356220e-03  1.3407264911143954e-03  1.3424631378114022e-03  1.3441951133316696e-03  1.3459223991951091e-03  1.3476449769366657e-03  1.3493628281064723e-03  1.3510759342700055e-03  1.3527842770082415e-03  1.3544878379178145e-03  1.3561865986111746e-03  1.3578805407167523e-03  1.3595696458791188e-03  1.3612538957591515e-03  1.3629332720341994e-03  1.3646077563982516e-03  1.3662773305621067e-03  1.3679419762535432e-03  1.3696016752174924e-03  1.3712564092162136e-03  1.3729061600294696e-03  1.3745509094547049e-03  1.3761906393072257e-03  1.3778253314203808e-03  1.3794549676457461e-03  1.3810795298533085e-03  1.3826989999316532e-03  1.3843133597881538e-03  1.3859225913491610e-03  1.3875266765601968e-03  1.3891255973861483e-03  1.3907193358114645e-03  1.3923078738403549e-03  1.3938911934969890e-03  1.3954692768257003e-03  1.3970421058911891e-03  1.3986096627787302e-03  1.4001719295943806e-03  1.4017288884651908e-03  1.4032805215394171e-03  1.4048268109867364e-03  1.4063677389984633e-03  1.4079032877877692e-03  1.4094334395899036e-03  1.4109581766624177e-03  1.4124774812853903e-03  1.4139913357616549e-03  1.4154997224170315e-03  1.4170026236005582e-03  1.4185000216847266e-03  1.4199918990657175e-03  1.4214782381636434e-03  1.4229590214227881e-03  1.4244342313118519e-03  1.4259038503241983e-03  1.4273678609781045e-03  1.4288262458170109e-03  1.4302789874097775e-03  1.4317260683509405e-03  1.4331674712609709e-03  1.4346031787865372e-03  1.4360331736007696e-03  1.4374574384035275e-03  1.4388759559216706e-03  1.4402887089093297e-03  1.4416956801481836e-03  1.4430968524477359e-03  1.4444922086455975e-03  1.4458817316077691e-03  1.4472654042289286e-03  1.4486432094327204e-03  1.4500151301720468e-03  1.4513811494293654e-03  1.4527412502169852e-03  1.4540954155773693e-03  1.4554436285834386e-03  1.4567858723388782e-03  1.4581221299784493e-03  1.4594523846683017e-03  1.4607766196062910e-03  1.4620948180222983e-03  1.4634069631785530e-03  1.4647130383699588e-03  1.4660130269244236e-03  1.4673069122031930e-03  1.4685946776011836e-03  1.4698763065473268e-03  1.4711517825049074e-03  1.4724210889719130e-03  1.4736842094813828e-03  1.4749411276017601e-0