<?xml version="1.0"?>
<VTKFile type="UnstructuredGrid"  version="0.1"  >
<UnstructuredGrid>
<Piece  NumberOfPoints="1001" NumberOfCells="1000">
<Points>
<DataArray  type="Float64"  NumberOfComponents="3"  format="ascii">0 0 0  0.001 0 0  0.002 0 0  0.003 0 0  0.004 0 0  0.005 0 0  0.006 0 0  0.007 0 0  0.008 0 0  0.008999999999999999 0 0  0.01 0 0  0.011 0 0  0.012 0 0  0.013 0 0  0.014 0 0  0.015 0 0  0.016 0 0  0.017 0 0  0.018 0 0  0.019 0 0  0.02 0 0  0.021 0 0  0.022 0 0  0.023 0 0  0.024 0 0  0.025 0 0  0.026 0 0  0.027 0 0  0.028 0 0  0.029 0 0  0.03 0 0  0.031 0 0  0.032 0 0  0.033 0 0  0.034 0 0  0.035 0 0  0.036 0 0  0.037 0 0  0.038 0 0  0.039 0 0  0.04 0 0  0.041 0 0  0.042 0 0  0.043 0 0  0.044 0 0  0.045 0 0  0.046 0 0  0.047 0 0  0.048 0 0  0.049 0 0  0.05 0 0  0.051 0 0  0.052 0 0  0.053 0 0  0.054 0 0  0.055 0 0  0.056 0 0  0.057 0 0  0.058 0 0  0.059 0 0  0.06 0 0  0.061 0 0  0.062 0 0  0.063 0 0  0.064 0 0  0.065 0 0  0.066 0 0  0.067 0 0  0.068 0 0  0.06900000000000001 0 0  0.07000000000000001 0 0  0.07099999999999999 0 0  0.07199999999999999 0 0  0.073 0 0  0.074 0 0  0.075 0 0  0.076 0 0  0.077 0 0  0.078 0 0  0.079 0 0  0.08 0 0  0.081 0 0  0.082 0 0  0.083 0 0  0.08400000000000001 0 0  0.08500000000000001 0 0  0.08599999999999999 0 0  0.08699999999999999 0 0  0.08799999999999999 0 0  0.089 0 0  0.09 0 0  0.091 0 0  0.092 0 0  0.093 0 0  0.094 0 0  0.095 0 0  0.096 0 0  0.097 0 0  0.098 0 0  0.099 0 0  0.1 0 0  0.101 0 0  0.102 0 0  0.103 0 0  0.104 0 0  0.105 0 0  0.106 0 0  0.107 0 0  0.108 0 0  0.109 0 0  0.11 0 0  0.111 0 0  0.112 0 0  0.113 0 0  0.114 0 0  0.115 0 0  0.116 0 0  0.117 0 0  0.118 0 0  0.119 0 0  0.12 0 0  0.121 0 0  0.122 0 0  0.123 0 0  0.124 0 0  0.125 0 0  0.126 0 0  0.127 0 0  0.128 0 0  0.129 0 0  0.13 0 0  0.131 0 0  0.132 0 0  0.133 0 0  0.134 0 0  0.135 0 0  0.136 0 0  0.137 0 0  0.138 0 0  0.139 0 0  0.14 0 0  0.141 0 0  0.142 0 0  0.143 0 0  0.144 0 0  0.145 0 0  0.146 0 0  0.147 0 0  0.148 0 0  0.149 0 0  0.15 0 0  0.151 0 0  0.152 0 0  0.153 0 0  0.154 0 0  0.155 0 0  0.156 0 0  0.157 0 0  0.158 0 0  0.159 0 0  0.16 0 0  0.161 0 0  0.162 0 0  0.163 0 0  0.164 0 0  0.165 0 0  0.166 0 0  0.167 0 0  0.168 0 0  0.169 0 0  0.17 0 0  0.171 0 0  0.172 0 0  0.173 0 0  0.174 0 0  0.175 0 0  0.176 0 0  0.177 0 0  0.178 0 0  0.179 0 0  0.18 0 0  0.181 0 0  0.182 0 0  0.183 0 0  0.184 0 0  0.185 0 0  0.186 0 0  0.187 0 0  0.188 0 0  0.189 0 0  0.19 0 0  0.191 0 0  0.192 0 0  0.193 0 0  0.194 0 0  0.195 0 0  0.196 0 0  0.197 0 0  0.198 0 0  0.199 0 0  0.2 0 0  0.201 0 0  0.202 0 0  0.203 0 0  0.204 0 0  0.205 0 0  0.206 0 0  0.207 0 0  0.208 0 0  0.209 0 0  0.21 0 0  0.211 0 0  0.212 0 0  0.213 0 0  0.214 0 0  0.215 0 0  0.216 0 0  0.217 0 0  0.218 0 0  0.219 0 0  0.22 0 0  0.221 0 0  0.222 0 0  0.223 0 0  0.224 0 0  0.225 0 0  0.226 0 0  0.227 0 0  0.228 0 0  0.229 0 0  0.23 0 0  0.231 0 0  0.232 0 0  0.233 0 0  0.234 0 0  0.235 0 0  0.236 0 0  0.237 0 0  0.238 0 0  0.239 0 0  0.24 0 0  0.241 0 0  0.242 0 0  0.243 0 0  0.244 0 0  0.245 0 0  0.246 0 0  0.247 0 0  0.248 0 0  0.249 0 0  0.25 0 0  0.251 0 0  0.252 0 0  0.253 0 0  0.254 0 0  0.255 0 0  0.256 0 0  0.257 0 0  0.258 0 0  0.259 0 0  0.26 0 0  0.261 0 0  0.262 0 0  0.263 0 0  0.264 0 0  0.265 0 0  0.266 0 0  0.267 0 0  0.268 0 0  0.269 0 0  0.27 0 0  0.271 0 0  0.272 0 0  0.273 0 0  0.274 0 0  0.275 0 0  0.276 0 0  0.277 0 0  0.278 0 0  0.279 0 0  0.28 0 0  0.281 0 0  0.282 0 0  0.283 0 0  0.284 0 0  0.285 0 0  0.286 0 0  0.287 0 0  0.288 0 0  0.289 0 0  0.29 0 0  0.291 0 0  0.292 0 0  0.293 0 0  0.294 0 0  0.295 0 0  0.296 0 0  0.297 0 0  0.298 0 0  0.299 0 0  0.3 0 0  0.301 0 0  0.302 0 0  0.303 0 0  0.304 0 0  0.305 0 0  0.306 0 0  0.307 0 0  0.308 0 0  0.309 0 0  0.31 0 0  0.311 0 0  0.312 0 0  0.313 0 0  0.314 0 0  0.315 0 0  0.316 0 0  0.317 0 0  0.318 0 0  0.319 0 0  0.32 0 0  0.321 0 0  0.322 0 0  0.323 0 0  0.324 0 0  0.325 0 0  0.326 0 0  0.327 0 0  0.328 0 0  0.329 0 0  0.33 0 0  0.331 0 0  0.332 0 0  0.333 0 0  0.334 0 0  0.335 0 0  0.336 0 0  0.337 0 0  0.338 0 0  0.339 0 0  0.34 0 0  0.341 0 0  0.342 0 0  0.343 0 0  0.344 0 0  0.345 0 0  0.346 0 0  0.347 0 0  0.348 0 0  0.349 0 0  0.35 0 0  0.351 0 0  0.352 0 0  0.353 0 0  0.354 0 0  0.355 0 0  0.356 0 0  0.357 0 0  0.358 0 0  0.359 0 0  0.36 0 0  0.361 0 0  0.362 0 0  0.363 0 0  0.364 0 0  0.365 0 0  0.366 0 0  0.367 0 0  0.368 0 0  0.369 0 0  0.37 0 0  0.371 0 0  0.372 0 0  0.373 0 0  0.374 0 0  0.375 0 0  0.376 0 0  0.377 0 0  0.378 0 0  0.379 0 0  0.38 0 0  0.381 0 0  0.382 0 0  0.383 0 0  0.384 0 0  0.385 0 0  0.386 0 0  0.387 0 0  0.388 0 0  0.389 0 0  0.39 0 0  0.391 0 0  0.392 0 0  0.393 0 0  0.394 0 0  0.395 0 0  0.396 0 0  0.397 0 0  0.398 0 0  0.399 0 0  0.4 0 0  0.401 0 0  0.402 0 0  0.403 0 0  0.404 0 0  0.405 0 0  0.406 0 0  0.407 0 0  0.408 0 0  0.409 0 0  0.41 0 0  0.411 0 0  0.412 0 0  0.413 0 0  0.414 0 0  0.415 0 0  0.416 0 0  0.417 0 0  0.418 0 0  0.419 0 0  0.42 0 0  0.421 0 0  0.422 0 0  0.423 0 0  0.424 0 0  0.425 0 0  0.426 0 0  0.427 0 0  0.428 0 0  0.429 0 0  0.43 0 0  0.431 0 0  0.432 0 0  0.433 0 0  0.434 0 0  0.435 0 0  0.436 0 0  0.437 0 0  0.438 0 0  0.439 0 0  0.44 0 0  0.441 0 0  0.442 0 0  0.443 0 0  0.444 0 0  0.445 0 0  0.446 0 0  0.447 0 0  0.448 0 0  0.449 0 0  0.45 0 0  0.451 0 0  0.452 0 0  0.453 0 0  0.454 0 0  0.455 0 0  0.456 0 0  0.457 0 0  0.458 0 0  0.459 0 0  0.46 0 0  0.461 0 0  0.462 0 0  0.463 0 0  0.464 0 0  0.465 0 0  0.466 0 0  0.467 0 0  0.468 0 0  0.469 0 0  0.47 0 0  0.471 0 0  0.472 0 0  0.473 0 0  0.474 0 0  0.475 0 0  0.476 0 0  0.477 0 0  0.478 0 0  0.479 0 0  0.48 0 0  0.481 0 0  0.482 0 0  0.483 0 0  0.484 0 0  0.485 0 0  0.486 0 0  0.487 0 0  0.488 0 0  0.489 0 0  0.49 0 0  0.491 0 0  0.492 0 0  0.493 0 0  0.494 0 0  0.495 0 0  0.496 0 0  0.497 0 0  0.498 0 0  0.499 0 0  0.5 0 0  0.501 0 0  0.502 0 0  0.503 0 0  0.504 0 0  0.505 0 0  0.506 0 0  0.507 0 0  0.508 0 0  0.509 0 0  0.51 0 0  0.511 0 0  0.512 0 0  0.513 0 0  0.514 0 0  0.515 0 0  0.516 0 0  0.517 0 0  0.518 0 0  0.519 0 0  0.52 0 0  0.521 0 0  0.522 0 0  0.523 0 0  0.524 0 0  0.525 0 0  0.526 0 0  0.527 0 0  0.528 0 0  0.529 0 0  0.53 0 0  0.531 0 0  0.532 0 0  0.533 0 0  0.534 0 0  0.535 0 0  0.536 0 0  0.537 0 0  0.538 0 0  0.539 0 0  0.54 0 0  0.541 0 0  0.542 0 0  0.543 0 0  0.544 0 0  0.545 0 0  0.546 0 0  0.547 0 0  0.548 0 0  0.549 0 0  0.55 0 0  0.551 0 0  0.552 0 0  0.553 0 0  0.554 0 0  0.555 0 0  0.556 0 0  0.5570000000000001 0 0  0.5580000000000001 0 0  0.5590000000000001 0 0  0.5600000000000001 0 0  0.5610000000000001 0 0  0.5620000000000001 0 0  0.5629999999999999 0 0  0.5639999999999999 0 0  0.5649999999999999 0 0  0.5659999999999999 0 0  0.5669999999999999 0 0  0.5679999999999999 0 0  0.569 0 0  0.57 0 0  0.571 0 0  0.572 0 0  0.573 0 0  0.574 0 0  0.575 0 0  0.576 0 0  0.577 0 0  0.578 0 0  0.579 0 0  0.58 0 0  0.581 0 0  0.582 0 0  0.583 0 0  0.584 0 0  0.585 0 0  0.586 0 0  0.587 0 0  0.588 0 0  0.589 0 0  0.59 0 0  0.591 0 0  0.592 0 0  0.593 0 0  0.594 0 0  0.595 0 0  0.596 0 0  0.597 0 0  0.598 0 0  0.599 0 0  0.6 0 0  0.601 0 0  0.602 0 0  0.603 0 0  0.604 0 0  0.605 0 0  0.606 0 0  0.607 0 0  0.608 0 0  0.609 0 0  0.61 0 0  0.611 0 0  0.612 0 0  0.613 0 0  0.614 0 0  0.615 0 0  0.616 0 0  0.617 0 0  0.618 0 0  0.619 0 0  0.62 0 0  0.621 0 0  0.622 0 0  0.623 0 0  0.624 0 0  0.625 0 0  0.626 0 0  0.627 0 0  0.628 0 0  0.629 0 0  0.63 0 0  0.631 0 0  0.632 0 0  0.633 0 0  0.634 0 0  0.635 0 0  0.636 0 0  0.637 0 0  0.638 0 0  0.639 0 0  0.64 0 0  0.641 0 0  0.642 0 0  0.643 0 0  0.644 0 0  0.645 0 0  0.646 0 0  0.647 0 0  0.648 0 0  0.649 0 0  0.65 0 0  0.651 0 0  0.652 0 0  0.653 0 0  0.654 0 0  0.655 0 0  0.656 0 0  0.657 0 0  0.658 0 0  0.659 0 0  0.66 0 0  0.661 0 0  0.662 0 0  0.663 0 0  0.664 0 0  0.665 0 0  0.666 0 0  0.667 0 0  0.668 0 0  0.669 0 0  0.67 0 0  0.671 0 0  0.672 0 0  0.673 0 0  0.674 0 0  0.675 0 0  0.676 0 0  0.677 0 0  0.678 0 0  0.679 0 0  0.68 0 0  0.681 0 0  0.6820000000000001 0 0  0.6830000000000001 0 0  0.6840000000000001 0 0  0.6850000000000001 0 0  0.6860000000000001 0 0  0.6870000000000001 0 0  0.6879999999999999 0 0  0.6889999999999999 0 0  0.6899999999999999 0 0  0.6909999999999999 0 0  0.6919999999999999 0 0  0.6929999999999999 0 0  0.694 0 0  0.695 0 0  0.696 0 0  0.697 0 0  0.698 0 0  0.699 0 0  0.7 0 0  0.701 0 0  0.702 0 0  0.703 0 0  0.704 0 0  0.705 0 0  0.706 0 0  0.707 0 0  0.708 0 0  0.709 0 0  0.71 0 0  0.711 0 0  0.712 0 0  0.713 0 0  0.714 0 0  0.715 0 0  0.716 0 0  0.717 0 0  0.718 0 0  0.719 0 0  0.72 0 0  0.721 0 0  0.722 0 0  0.723 0 0  0.724 0 0  0.725 0 0  0.726 0 0  0.727 0 0  0.728 0 0  0.729 0 0  0.73 0 0  0.731 0 0  0.732 0 0  0.733 0 0  0.734 0 0  0.735 0 0  0.736 0 0  0.737 0 0  0.738 0 0  0.739 0 0  0.74 0 0  0.741 0 0  0.742 0 0  0.743 0 0  0.744 0 0  0.745 0 0  0.746 0 0  0.747 0 0  0.748 0 0  0.749 0 0  0.75 0 0  0.751 0 0  0.752 0 0  0.753 0 0  0.754 0 0  0.755 0 0  0.756 0 0  0.757 0 0  0.758 0 0  0.759 0 0  0.76 0 0  0.761 0 0  0.762 0 0  0.763 0 0  0.764 0 0  0.765 0 0  0.766 0 0  0.767 0 0  0.768 0 0  0.769 0 0  0.77 0 0  0.771 0 0  0.772 0 0  0.773 0 0  0.774 0 0  0.775 0 0  0.776 0 0  0.777 0 0  0.778 0 0  0.779 0 0  0.78 0 0  0.781 0 0  0.782 0 0  0.783 0 0  0.784 0 0  0.785 0 0  0.786 0 0  0.787 0 0  0.788 0 0  0.789 0 0  0.79 0 0  0.791 0 0  0.792 0 0  0.793 0 0  0.794 0 0  0.795 0 0  0.796 0 0  0.797 0 0  0.798 0 0  0.799 0 0  0.8 0 0  0.801 0 0  0.802 0 0  0.803 0 0  0.804 0 0  0.805 0 0  0.806 0 0  0.8070000000000001 0 0  0.8080000000000001 0 0  0.8090000000000001 0 0  0.8100000000000001 0 0  0.8110000000000001 0 0  0.8120000000000001 0 0  0.8129999999999999 0 0  0.8139999999999999 0 0  0.8149999999999999 0 0  0.8159999999999999 0 0  0.8169999999999999 0 0  0.8179999999999999 0 0  0.819 0 0  0.82 0 0  0.821 0 0  0.822 0 0  0.823 0 0  0.824 0 0  0.825 0 0  0.826 0 0  0.827 0 0  0.828 0 0  0.829 0 0  0.83 0 0  0.831 0 0  0.832 0 0  0.833 0 0  0.834 0 0  0.835 0 0  0.836 0 0  0.837 0 0  0.838 0 0  0.839 0 0  0.84 0 0  0.841 0 0  0
[...]
<PointData  Scalars="f_33"> 
<DataArray  type="Float64"  Name="f_33"  format="ascii">0.0000000000000000e+00  4.4970000000000001e-07  1.7976000000000002e-06  4.0419000000000002e-06  7.1807999999999999e-06  1.1212500000000001e-05  1.6135200000000001e-05  2.1947099999999999e-05  2.8646400000000004e-05  3.6231300000000000e-05  4.4700000000000002e-05  5.4050699999999987e-05  6.4281600000000005e-05  7.5390900000000004e-05  8.7376800000000000e-05  1.0023749999999999e-04  1.1397120000000000e-04  1.2857610000000002e-04  1.4405039999999998e-04  1.6039229999999997e-04  1.7760000000000001e-04  1.9567170000000001e-04  2.1460559999999994e-04  2.3439990000000000e-04  2.5505280000000003e-04  2.7656250000000001e-04  2.9892720000000001e-04  3.2214509999999995e-04  3.4621439999999999e-04  3.7113330000000005e-04  3.9690000000000000e-04  4.2351270000000004e-04  4.5096960000000005e-04  4.7926890000000002e-04  5.0840880000000007e-04  5.3838750000000015e-04  5.6920319999999996e-04  6.0085409999999998e-04  6.3333840000000003e-04  6.6665429999999992e-04  7.0080000000000012e-04  7.3577370000000013e-04  7.7157360000000010e-04  8.0819789999999996e-04  8.4564479999999984e-04  8.8391249999999989e-04  9.2299919999999994e-04  9.6290310000000001e-04  1.0036223999999999e-03  1.0451553000000000e-03  1.0875000000000001e-03  1.1306546999999996e-03  1.1746176000000002e-03  1.2193868999999999e-03  1.2649607999999999e-03  1.3113375000000000e-03  1.3585152000000001e-03  1.4064921000000001e-03  1.4552664000000003e-03  1.5048362999999999e-03  1.5551999999999999e-03  1.6063556999999999e-03  1.6583016000000000e-03  1.7110358999999999e-03  1.7645568000000003e-03  1.8188625000000003e-03  1.8739512000000001e-03  1.9298211000000002e-03  1.9864704000000003e-03  2.0438973000000004e-03  2.1021000000000008e-03  2.1610766999999994e-03  2.2208255999999998e-03  2.2813448999999997e-03  2.3426327999999997e-03  2.4046875000000001e-03  2.4675071999999999e-03  2.5310900999999998e-03  2.5954343999999999e-03  2.6605383000000002e-03  2.7264000000000004e-03  2.7930177000000003e-03  2.8603896000000003e-03  2.9285139000000005e-03  2.9973888000000004e-03  3.0670125000000006e-03  3.1373831999999993e-03  3.2084990999999992e-03  3.2803583999999994e-03  3.3529592999999996e-03  3.4262999999999997e-03  3.5003787000000000e-03  3.5751935999999997e-03  3.6507428999999997e-03  3.7270248000000001e-03  3.8040375000000003e-03  3.8817791999999998e-03  3.9602481000000009e-03  4.0394424000000000e-03  4.1193603000000004e-03  4.2000000000000006e-03  4.2813597000000009e-03  4.3634375999999989e-03  4.4462318999999991e-03  4.5297408000000003e-03  4.6139624999999998e-03  4.6988951999999999e-03  4.7845370999999998e-03  4.8708863999999998e-03  4.9579413000000001e-03  5.0457000000000002e-03  5.1341607000000003e-03  5.2233216000000006e-03  5.3131808999999997e-03  5.4037368000000004e-03  5.4949875000000004e-03  5.5869312000000008e-03  5.6795661000000001e-03  5.7728904000000003e-03  5.8669022999999999e-03  5.9616000000000001e-03  6.0569817000000001e-03  6.1530455999999996e-03  6.2497899000000003e-03  6.3472127999999999e-03  6.4453124999999997e-03  6.5440871999999997e-03  6.6435351000000004e-03  6.7436544000000001e-03  6.8444433000000009e-03  6.9459000000000005e-03  7.0480226999999999e-03  7.1508096000000004e-03  7.2542589000000011e-03  7.3583688000000008e-03  7.4631375000000022e-03  7.5685632000000013e-03  7.6746441000000009e-03  7.7813784000000021e-03  7.8887643000000018e-03  7.9968000000000018e-03  8.1054836999999991e-03  8.2148135999999990e-03  8.3247878999999983e-03  8.4354047999999991e-03  8.5466624999999997e-03  8.6585591999999989e-03  8.7710931000000002e-03  8.8842623999999988e-03  8.9980653000000001e-03  9.1125000000000008e-03  9.2275646999999995e-03  9.3432576000000000e-03  9.4595769000000007e-03  9.5765208000000001e-03  9.6940875000000020e-03  9.8122751999999997e-03  9.9310821000000004e-03  1.0050506400000001e-02  1.0170546300000000e-02  1.0291200000000000e-02  1.0412465700000000e-02  1.0534341600000002e-02  1.0656825900000000e-02  1.0779916800000003e-02  1.0903612500000001e-02  1.1027911200000001e-02  1.1152811100000002e-02  1.1278310400000002e-02  1.1404407300000001e-02  1.1531100000000002e-02  1.1658386700000002e-02  1.1786265599999998e-02  1.1914734900000000e-02  1.2043792799999998e-02  1.2173437499999998e-02  1.2303667199999998e-02  1.2434480099999999e-02  1.2565874400000000e-02  1.2697848300000000e-02  1.2830399999999999e-02  1.2963527699999998e-02  1.3097229600000001e-02  1.3231503900000002e-02  1.3366348799999999e-02  1.3501762500000000e-02  1.3637743200000000e-02  1.3774289100000000e-02  1.3911398400000000e-02  1.4049069300000000e-02  1.4187300000000002e-02  1.4326088700000000e-02  1.4465433600000001e-02  1.4605332900000002e-02  1.4745784800000002e-02  1.4886787500000002e-02  1.5028339199999999e-02  1.5170438100000003e-02  1.5313082400000002e-02  1.5456270300000000e-02  1.5600000000000003e-02  1.5744269700000001e-02  1.5889077600000003e-02  1.6034421900000002e-02  1.6180300799999995e-02  1.6326712499999996e-02  1.6473655199999999e-02  1.6621127099999997e-02  1.6769126400000001e-02  1.6917651299999999e-02  1.7066699999999997e-02  1.7216270699999998e-02  1.7366361599999998e-02  1.7516970900000001e-02  1.7668096799999998e-02  1.7819737500000002e-02  1.7971891199999999e-02  1.8124556099999998e-02  1.8277730400000001e-02  1.8431412299999998e-02  1.8585600000000001e-02  1.8740291700000002e-02  1.8895485600000001e-02  1.9051179900000003e-02  1.9207372800000001e-02  1.9364062500000001e-02  1.9521247199999998e-02  1.9678925100000001e-02  1.9837094400000001e-02  1.9995753299999999e-02  2.0154900000000003e-02  2.0314532699999999e-02  2.0474649600000002e-02  2.0635248900000003e-02  2.0796328800000000e-02  2.0957887500000001e-02  2.1119923200000001e-02  2.1282434099999997e-02  2.1445418400000003e-02  2.1608874299999997e-02  2.1772799999999998e-02  2.1937193700000000e-02  2.2102053600000001e-02  2.2267377900000000e-02  2.2433164799999999e-02  2.2599412499999999e-02  2.2766119200000001e-02  2.2933283100000000e-02  2.3100902400000001e-02  2.3268975299999998e-02  2.3437500000000000e-02  2.3606474700000001e-02  2.3775897599999998e-02  2.3945766900000002e-02  2.4116080800000002e-02  2.4286837500000002e-02  2.4458035200000002e-02  2.4629672100000000e-02  2.4801746400000001e-02  2.4974256300000001e-02  2.5147200000000001e-02  2.5320575700000000e-02  2.5494381600000001e-02  2.5668615900000004e-02  2.5843276799999999e-02  2.6018362500000003e-02  2.6193871200000003e-02  2.6369801100000003e-02  2.6546150400000003e-02  2.6722917300000006e-02  2.6900100000000003e-02  2.7077696700000008e-02  2.7255705600000003e-02  2.7434124900000002e-02  2.7612952800000007e-02  2.7792187500000003e-02  2.7971827200000007e-02  2.8151870100000004e-02  2.8332314400000003e-02  2.8513158300000004e-02  2.8694400000000012e-02  2.8876037700000006e-02  2.9058069599999996e-02  2.9240493899999997e-02  2.9423308799999992e-02  2.9606512500000001e-02  2.9790103199999994e-02  2.9974079099999995e-02  3.0158438400000001e-02  3.0343179299999998e-02  3.0528299999999998e-02  3.0713798699999996e-02  3.0899673599999997e-02  3.1085922899999993e-02  3.1272544800000003e-02  3.1459537500000002e-02  3.1646899199999995e-02  3.1834628099999998e-02  3.2022722400000002e-02  3.2211180300000003e-02  3.2400000000000005e-02  3.2589179699999991e-02  3.2778717599999993e-02  3.2968611900000000e-02  3.3158860799999995e-02  3.3349462500000003e-02  3.3540415200000000e-02  3.3731717100000003e-02  3.3923366399999995e-02  3.4115361300000001e-02  3.4307700000000003e-02  3.4500380700000000e-02  3.4693401600000000e-02  3.4886760900000001e-02  3.5080456800000000e-02  3.5274487500000007e-02  3.5468851199999998e-02  3.5663546099999999e-02  3.5858570399999998e-02  3.6053922300000006e-02  3.6249600000000000e-02  3.6445601700000003e-02  3.6641925600000000e-02  3.6838569900000000e-02  3.7035532800000007e-02  3.7232812500000011e-02  3.7430407200000002e-02  3.7628315100000004e-02  3.7826534400000007e-02  3.8025063300000002e-02  3.8223900000000005e-02  3.8423042700000000e-02  3.8622489600000004e-02  3.8822238900000007e-02  3.9022288800000006e-02  3.9222637500000004e-02  3.9423283200000006e-02  3.9624224100000008e-02  3.9825458399999999e-02  4.0026984300000006e-02  4.0228800000000009e-02  4.0430903700000000e-02  4.0633293600000009e-02  4.0835967900000006e-02  4.1038924799999994e-02  4.1242162499999999e-02  4.1445679199999995e-02  4.1649473099999994e-02  4.1853542399999992e-02  4.2057885299999993e-02  4.2262499999999995e-02  4.2467384699999999e-02  4.2672537599999991e-02  4.2877956900000000e-02  4.3083640799999996e-02  4.3289587499999997e-02  4.3495795199999999e-02  4.3702262100000000e-02  4.3908986399999995e-02  4.4115966300000004e-02  4.4323200000000000e-02  4.4530685699999996e-02  4.4738421600000002e-02  4.4946405900000000e-02  4.5154636800000002e-02  4.5363112500000004e-02  4.5571831200000003e-02  4.5780791099999996e-02  4.5989990400000000e-02  4.6199427299999998e-02  4.6409099999999995e-02  4.6619006700000007e-02  4.6829145599999997e-02  4.7039514899999996e-02  4.7250112800000008e-02  4.7460937500000008e-02  4.7671987200000009e-02  4.7883260099999998e-02  4.8094754400000002e-02  4.8306468300000002e-02  4.8518400000000003e-02  4.8730547700000001e-02  4.8942909600000001e-02  4.9155483899999998e-02  4.9368268800000004e-02  4.9581262500000008e-02  4.9794463200000007e-02  5.0007869099999998e-02  5.0221478400000012e-02  5.0435289299999998e-02  5.0649300000000001e-02  5.0863508700000011e-02  5.1077913599999990e-02  5.1292512900000004e-02  5.1507304800000007e-02  5.1722287500000005e-02  5.1937459200000008e-02  5.2152818100000005e-02  5.2368362400000000e-02  5.2584090300000004e-02  5.2800000000000014e-02  5.3016089700000012e-02  5.3232357600000002e-02  5.3448801900000009e-02  5.3665420800000009e-02  5.3882212500000005e-02  5.4099175200000016e-02  5.4316307099999989e-02  5.4533606399999990e-02  5.4751071300000002e-02  5.4968699999999995e-02  5.5186490699999993e-02  5.5404441599999993e-02  5.5622550899999998e-02  5.5840816799999991e-02  5.6059237499999998e-02  5.6277811200000007e-02  5.6496536099999987e-02  5.6715410399999999e-02  5.6934432300000004e-02  5.7153599999999992e-02  5.7372911700000001e-02  5.7592365600000001e-02  5.7811959899999994e-02  5.8031692800000000e-02  5.8251562500000000e-02  5.8471567200000005e-02  5.8691705100000005e-02  5.8911974400000004e-02  5.9132373299999999e-02  5.9352900000000007e-02  5.9573552699999997e-02  5.9794329599999994e-02  6.0015228900000002e-02  6.0236248799999996e-02  6.0457387499999994e-02  6.0678643200000000e-02  6.0900014099999997e-02  6.1121498399999995e-02  6.1343094300000012e-02  6.1564800000000003e-02  6.1786613700000007e-02  6.2008533600000006e-02  6.2230557900000004e-02  6.2452684799999998e-02  6.2674912499999999e-02  6.2897239200000010e-02  6.3119663099999987e-02  6.3342182400000002e-02  6.3564795300000004e-02  6.3787500000000011e-02  6.4010294700000012e-02  6.4233177599999997e-02  6.4456146899999997e-02  6.4679200800000003e-02  6.4902337500000004e-02  6.5125555200000004e-02  6.5348852100000007e-02  6.5572226400000003e-02  6.5795676300000008e-02  6.6019200000000014e-02  6.6242795700000009e-02  6.6466461599999999e-02  6.6690195900000013e-02  6.6913996800000014e-02  6.7137862500000006e-02  6.7361791200000021e-02  6.7585781100000006e-02  6.7809830399999993e-02  6.8033937299999986e-02  6.8258100000000002e-02  6.8482316699999990e-02  6.8706585600000009e-02  6.8930904900000006e-02  6.9155272799999987e-02  6.9379687499999995e-02  6.9604147200000008e-02  6.9828650099999987e-02  7.0053194399999991e-02  7.0277778300000010e-02  7.0502399999999993e-02  7.0727057699999998e-02  7.0951749600000003e-02  7.1176473899999981e-02  7.1401228800000008e-02  7.1626012500000003e-02  7.1850823199999997e-02  7.2075659100000009e-02  7.2300518400000000e-02  7.2525399299999987e-02  7.2750300000000004e-02  7.2975218700000011e-02  7.3200153599999998e-02  7.3425102899999997e-02  7.3650064800000012e-02  7.3875037499999990e-02  7.4100019200000006e-02  7.4325008100000006e-02  7.4550002399999996e-02  7.4775000299999991e-02  7.5000000000000011e-02  7.5224999700000003e-02  7.5449997600000013e-02  7.5674991900000002e-02  7.5899980799999989e-02  7.6124962500000004e-02  7.6349935200000010e-02  7.6574897099999997e-02  7.6799846399999996e-02  7.7024781300000011e-02  7.7249699999999991e-02  7.7474600700000007e-02  7.7699481600000009e-02  7.7924340900000000e-02  7.8149176799999998e-02  7.8373987500000006e-02  7.8598771200000001e-02  7.8823526100000013e-02  7.9048250400000006e-02  7.9272942299999996e-02  7.9497600000000002e-02  7.9722221700000026e-02  7.9946805600000004e-02  8.0171349900000008e-02  8.0395852800000014e-02  8.0620312499999999e-02  8.0844727200000008e-02  8.1069095100000016e-02  8.1293414399999986e-02  8.1517683300000018e-02  8.1741900000000020e-02  8.1966062699999995e-02  8.2190169600000015e-02  8.2414218900000016e-02  8.2638208800000001e-02  8.2862137500000002e-02  8.3086003200000022e-02  8.3309804099999996e-02  8.3533538400000010e-02  8.3757204300000027e-02  8.3980800000000008e-02  8.4204323700000014e-02  8.4427773600000020e-02  8.4651147900000001e-02  8.4874444800000004e-02  8.5097662500000018e-02  8.5320799200000005e-02  8.5543853100000025e-02  8.5766822400000026e-02  8.5989705299999997e-02  8.6212500000000011e-02  8.6435204700000032e-02  8.6657817600000006e-02  8.6880336900000008e-02  8.7102760800000012e-02  8.7325087499999995e-02  8.7547315200000003e-02  8.7769442100000039e-02  8.7991466400000010e-02  8.8213386300000016e-02  8.8435200000000033e-02  8.8656905699999997e-02  8.8878501600000007e-02  8.9099985899999984e-02  8.9321356800000001e-02  8.9542612499999980e-02  8.9763751199999992e-02  8.9984771099999999e-02  9.0205670399999979e-02  9.0426447299999990e-02  9.0647100000000022e-02  9.0867626699999995e-02  9.1088025599999983e-02  9.1308294899999989e-02  9.1528432799999990e-02  9.1748437499999988e-02  9.1968307200000016e-02  9.2188040099999979e-02  9.2407634399999994e-02  9.2627088300000021e-02  9.2846399999999982e-02  9.3065567700000004e-02  9.3284589599999995e-02  9.3503463899999972e-02  9.3722188799999995e-02  9.3940762499999997e-02  9.4159183199999982e-02  9.4377449100000010e-02  9.4595558400000015e-02  9.4813509299999987e-02  9.5031300000000013e-02  9.5248928700000013e-02  9.5466393599999977e-02  9.5683692899999978e-02  9.5900824800000006e-02  9.6117787499999982e-02  9.6334579200000006e-02  9.6551198100000013e-02  9.6767642399999992e-02  9.6983910300000004e-02  9.7200000000000022e-02  9.7415909699999997e-02  9.7631637599999987e-02  9.7847181900000010e-02  9.8062540799999987e-02  9.8277712500000003e-02  9.8492695200000008e-02  9.8707487099999991e-02  9.8922086399999998e-02  9.9136491300000018e-02  9.9350700000000000e-02  9.9564710700000017e-02  9.9778521600000017e-02  9.9992130899999990e-02  1.0020553679999999e-01  1.0041873750000001e-01  1.0063173119999999e-01  1.0084451609999999e-01  1.0105709040000002e-01  1.0126945229999999e-01  1.0148160000000002e-01  1.0169353170000002e-01  1.0190524559999999e-01  1.0211673989999999e-01  1.0232801280000001e-01  1.0253906249999999e-01  1.0274988720000000e-01  1.0296048510000001e-01  1.0317085440000000e-01  1.0338099330000000e-01  1.0359090000000003e-01  1.0380057270000000e-01  1.0401000960000001e-01  1.0421920890000001e-01  1.0442816879999998e-01  1.0463688750000000e-01  1.0484536320000001e-01  1.0505359409999999e-01  1.0526157840000001e-01  1.0546931430000003e-01  1.0567679999999999e-01  1.0588403370000000e-01  1.0609101360000001e-01  1.0629773789999998e-01  1.0650420480000000e-01  1.0671041250000002e-01  1.0691635919999999e-01  1.0712204310000001e-01  1.0732746240000003e-01  1.0753261530000000e-01  1.0773750000000003e-01  1.0794211470000004e-01  1.0814645760000000e-01  1.0835052689999999e-01  1.0855432080000002e-01  1.0875783750000000e-01  1.0896107520000001e-01  1.0916403210000003e-01  1.0936670640000000e-01  1.0956909630000002e-01  1.0977120000000003e-01  1.0997301570000001e-01  1.1017454160000001e-01  1.1037577590000001e-01  1.1057671680000000e-01  1.1077736250000000e-01  1.1097771120000002e-01  1.1117776109999999e-01  1.1137751040000000e-01  1.1157695730000003e-01  1.1177610000000000e-01  1.1197493670000003e-01  1.1217346560000002e-01  1.1237168489999999e-01  1.1256959280000001e-01  1.1276718750000002e-01  1.1296446719999999e-01  1.1316143010000002e-01  1.1335807440000002e-01  1.1355439830000001e-01  1.1375040000000002e-01  1.1394607770000004e-01  1.1414142959999998e-01  1.1433645390000001e-01  1.1453114880000002e-01  1.1472551250000000e-01  1.1491954320000002e-01  1.1511323910000003e-01  1.1530659840000000e-01  1.1549961929999997e-01  1.1569230000000000e-01  1.1588463870000001e-01  1.1607663359999998e-01  1.1626828289999998e-01  1.1645958480000000e-01  1.1665053749999998e-01  1.1684113919999999e-01  1.1703138810000001e-01  1.1722128239999999e-01  1.1741082030000001e-01  1.1760000000000001e-01  1.1778881969999998e-01  1.1797727760000001e-01  1.1816537190000000e-01  1.1835310079999996e-01  1.1854046250000000e-01  1.1872745520000001e-01  1.1891407709999997e-01  1.1910032640000000e-01  1.1928620130000001e-01  1.1947169999999999e-01  1.1965682070000001e-01  1.1984156160000002e-01  1.2002592089999997e-01  1.2020989679999999e-01  1.2039348750000001e-01  1.2057669119999999e-01  1.2075950610000000e-01  1.2094193040000002e-01  1.2112396229999998e-01  1.2130560000000000e-01  1.2148684170000003e-01  1.2166768559999999e-01  1.2184812989999999e-01  1.2202817280000001e-01  1.2220781249999997e-01  1.2238704720000000e-01  1.2256587510000001e-01  1.2274429439999998e-01  1.2292230330000001e-01  1.2309990000000003e-01  1.2327708270000000e-01  1.2345384960000001e-01  1.2363019890000000e-01  1.2380612879999998e-01  1.2398163749999999e-01  1.2415672320000001e-01  1.2433138409999998e-01  1.2450561840000000e-01  1.2467942430000002e-01  1.2485279999999999e-01  1.2502574370000000e-01  1.2519825360000003e-01  1.2537032789999997e-01  1.2554196479999999e-01  1.2571316250000000e-01  1.2588391919999997e-01  1.2605423310000002e-01  1.2622410240000004e-01  1.2639352529999998e-01  1.2656250000000002e-01  1.2673102470000000e-01  1.2689909760000001e-01  1.2706671689999999e-01  1.2723388080000000e-01  1.2740058750000002e-01  1.2756683520000001e-01  1.2773262210000000e-01  1.2789794640000002e-01  1.2806280630000000e-01  1.2822720000000001e-01  1.2839112570000003e-01  1.2855458160000000e-01  1.2871756590000000e-01  1.2888007679999999e-01  1.2904211250000000e-01  1.2920367119999998e-01  1.2936475110000001e-01  1.2952535040000002e-01  1.2968546730000000e-01  1.2984510000000002e-01  1.3000424670000002e-01  1.3016290560000002e-01  1.3032107490000000e-01  1.3047875279999999e-01  1.3063593749999999e-01  1.3079262720000001e-01  1.3094882010000000e-01  1.3110451439999998e-01  1.3125970830000003e-01  1.3141440000000001e-01  1.3156858770000002e-01  1.3172226960000002e-01  1.3187544390000000e-01  1.3202810879999999e-01  1.3218026250000001e-01  1.3233190320000002e-01  1.3248302910000001e-01  1.3263363840000003e-01  1.3278372930000001e-01  1.3293330000000000e-01  1.3308234870000005e-01  1.3323087360000002e-01  1.3337887290000000e-01  1.3352634480000000e-01  1.3367328749999999e-01  1.3381969920000000e-01  1.3396557810000001e-01  1.3411092240000000e-01  1.3425573029999999e-01  1.3440000000000002e-01  1.3454372970000003e-01  1.3468691760000001e-01  1.3482956190000001e-01  1.3497166080000000e-01  1.3511321250000000e-01  1.3525421520000003e-01  1.3539466710000000e-01  1.3553456640000000e-01  1.3567391130000003e-01  1.3581270000000001e-01  1.3595093070000000e-01  1.3608860160000003e-01  1.3622571090000002e-01  1.3636225679999997e-01  1.3649823749999998e-01  1.3663365119999998e-01  1.3676849610000000e-01  1.3690277039999998e-01  1.3703647230000002e-01  1.3716960000000000e-01  1.3730215169999999e-01  1.3743412560000001e-01  1.3756551990000002e-01  1.3769633279999999e-01  1.3782656250000000e-01  1.3795620719999999e-01  1.3808526509999999e-01  1.3821373440000001e-01  1.3834161330000000e