<?xml version="1.0"?>
<VTKFile type="UnstructuredGrid"  version="0.1"  >
<UnstructuredGrid>
<Piece  NumberOfPoints="1089" NumberOfCells="2048">
<Points>
<DataArray  type="Float64"  NumberOfComponents="3"  format="ascii">0 0 0  0.03125 0 0  0.0625 0 0  0.09375 0 0  0.125 0 0  0.15625 0 0  0.1875 0 0  0.21875 0 0  0.25 0 0  0.28125 0 0  0.3125 0 0  0.34375 0 0  0.375 0 0  0.40625 0 0  0.4375 0 0  0.46875 0 0  0.5 0 0  0.53125 0 0  0.5625 0 0  0.59375 0 0  0.625 0 0  0.65625 0 0  0.6875 0 0  0.71875 0 0  0.75 0 0  0.78125 0 0  0.8125 0 0  0.84375 0 0  0.875 0 0  0.90625 0 0  0.9375 0 0  0.96875 0 0  1 0 0  0 0.03125 0  0.03125 0.03125 0  0.0625 0.03125 0  0.09375 0.03125 0  0.125 0.03125 0  0.15625 0.03125 0  0.1875 0.03125 0  0.21875 0.03125 0  0.25 0.03125 0  0.28125 0.03125 0  0.3125 0.03125 0  0.34375 0.03125 0  0.375 0.03125 0  0.40625 0.03125 0  0.4375 0.03125 0  0.46875 0.03125 0  0.5 0.03125 0  0.53125 0.03125 0  0.5625 0.03125 0  0.59375 0.03125 0  0.625 0.03125 0  0.65625 0.03125 0  0.6875 0.03125 0  0.71875 0.03125 0  0.75 0.03125 0  0.78125 0.03125 0  0.8125 0.03125 0  0.84375 0.03125 0  0.875 0.03125 0  0.90625 0.03125 0  0.9375 0.03125 0  0.96875 0.03125 0  1 0.03125 0  0 0.0625 0  0.03125 0.0625 0  0.0625 0.0625 0  0.09375 0.0625 0  0.125 0.0625 0  0.15625 0.0625 0  0.1875 0.0625 0  0.21875 0.0625 0  0.25 0.0625 0  0.28125 0.0625 0  0.3125 0.0625 0  0.34375 0.0625 0  0.375 0.0625 0  0.40625 0.0625 0  0.4375 0.0625 0  0.46875 0.0625 0  0.5 0.0625 0  0.53125 0.0625 0  0.5625 0.0625 0  0.59375 0.0625 0  0.625 0.0625 0  0.65625 0.0625 0  0.6875 0.0625 0  0.71875 0.0625 0  0.75 0.0625 0  0.78125 0.0625 0  0.8125 0.0625 0  0.84375 0.0625 0  0.875 0.0625 0  0.90625 0.0625 0  0.9375 0.0625 0  0.96875 0.0625 0  1 0.0625 0  0 0.09375 0  0.03125 0.09375 0  0.0625 0.09375 0  0.09375 0.09375 0  0.125 0.09375 0  0.15625 0.09375 0  0.1875 0.09375 0  0.21875 0.09375 0  0.25 0.09375 0  0.28125 0.09375 0  0.3125 0.09375 0  0.34375 0.09375 0  0.375 0.09375 0  0.40625 0.09375 0  0.4375 0.09375 0  0.46875 0.09375 0  0.5 0.09375 0  0.53125 0.09375 0  0.5625 0.09375 0  0.59375 0.09375 0  0.625 0.09375 0  0.65625 0.09375 0  0.6875 0.09375 0  0.71875 0.09375 0  0.75 0.09375 0  0.78125 0.09375 0  0.8125 0.09375 0  0.84375 0.09375 0  0.875 0.09375 0  0.90625 0.09375 0  0.9375 0.09375 0  0.96875 0.09375 0  1 0.09375 0  0 0.125 0  0.03125 0.125 0  0.0625 0.125 0  0.09375 0.125 0  0.125 0.125 0  0.15625 0.125 0  0.1875 0.125 0  0.21875 0.125 0  0.25 0.125 0  0.28125 0.125 0  0.3125 0.125 0  0.34375 0.125 0  0.375 0.125 0  0.40625 0.125 0  0.4375 0.125 0  0.46875 0.125 0  0.5 0.125 0  0.53125 0.125 0  0.5625 0.125 0  0.59375 0.125 0  0.625 0.125 0  0.65625 0.125 0  0.6875 0.125 0  0.71875 0.125 0  0.75 0.125 0  0.78125 0.125 0  0.8125 0.125 0  0.84375 0.125 0  0.875 0.125 0  0.90625 0.125 0  0.9375 0.125 0  0.96875 0.125 0  1 0.125 0  0 0.15625 0  0.03125 0.15625 0  0.0625 0.15625 0  0.09375 0.15625 0  0.125 0.15625 0  0.15625 0.15625 0  0.1875 0.15625 0  0.21875 0.15625 0  0.25 0.15625 0  0.28125 0.15625 0  0.3125 0.15625 0  0.34375 0.15625 0  0.375 0.15625 0  0.40625 0.15625 0  0.4375 0.15625 0  0.46875 0.15625 0  0.5 0.15625 0  0.53125 0.15625 0  0.5625 0.15625 0  0.59375 0.15625 0  0.625 0.15625 0  0.65625 0.15625 0  0.6875 0.15625 0  0.71875 0.15625 0  0.75 0.15625 0  0.78125 0.15625 0  0.8125 0.15625 0  0.84375 0.15625 0  0.875 0.15625 0  0.90625 0.15625 0  0.9375 0.15625 0  0.96875 0.15625 0  1 0.15625 0  0 0.1875 0  0.03125 0.1875 0  0.0625 0.1875 0  0.09375 0.1875 0  0.125 0.1875 0  0.15625 0.1875 0  0.1875 0.1875 0  0.21875 0.1875 0  0.25 0.1875 0  0.28125 0.1875 0  0.3125 0.1875 0  0.34375 0.1875 0  0.375 0.1875 0  0.40625 0.1875 0  0.4375 0.1875 0  0.46875 0.1875 0  0.5 0.1875 0  0.53125 0.1875 0  0.5625 0.1875 0  0.59375 0.1875 0  0.625 0.1875 0  0.65625 0.1875 0  0.6875 0.1875 0  0.71875 0.1875 0  0.75 0.1875 0  0.78125 0.1875 0  0.8125 0.1875 0  0.84375 0.1875 0  0.875 0.1875 0  0.90625 0.1875 0  0.9375 0.1875 0  0.96875 0.1875 0  1 0.1875 0  0 0.21875 0  0.03125 0.21875 0  0.0625 0.21875 0  0.09375 0.21875 0  0.125 0.21875 0  0.15625 0.21875 0  0.1875 0.21875 0  0.21875 0.21875 0  0.25 0.21875 0  0.28125 0.21875 0  0.3125 0.21875 0  0.34375 0.21875 0  0.375 0.21875 0  0.40625 0.21875 0  0.4375 0.21875 0  0.46875 0.21875 0  0.5 0.21875 0  0.53125 0.21875 0  0.5625 0.21875 0  0.59375 0.21875 0  0.625 0.21875 0  0.65625 0.21875 0  0.6875 0.21875 0  0.71875 0.21875 0  0.75 0.21875 0  0.78125 0.21875 0  0.8125 0.21875 0  0.84375 0.21875 0  0.875 0.21875 0  0.90625 0.21875 0  0.9375 0.21875 0  0.96875 0.21875 0  1 0.21875 0  0 0.25 0  0.03125 0.25 0  0.0625 0.25 0  0.09375 0.25 0  0.125 0.25 0  0.15625 0.25 0  0.1875 0.25 0  0.21875 0.25 0  0.25 0.25 0  0.28125 0.25 0  0.3125 0.25 0  0.34375 0.25 0  0.375 0.25 0  0.40625 0.25 0  0.4375 0.25 0  0.46875 0.25 0  0.5 0.25 0  0.53125 0.25 0  0.5625 0.25 0  0.59375 0.25 0  0.625 0.25 0  0.65625 0.25 0  0.6875 0.25 0  0.71875 0.25 0  0.75 0.25 0  0.78125 0.25 0  0.8125 0.25 0  0.84375 0.25 0  0.875 0.25 0  0.90625 0.25 0  0.9375 0.25 0  0.96875 0.25 0  1 0.25 0  0 0.28125 0  0.03125 0.28125 0  0.0625 0.28125 0  0.09375 0.28125 0  0.125 0.28125 0  0.15625 0.28125 0  0.1875 0.28125 0  0.21875 0.28125 0  0.25 0.28125 0  0.28125 0.28125 0  0.3125 0.28125 0  0.34375 0.28125 0  0.375 0.28125 0  0.40625 0.28125 0  0.4375 0.28125 0  0.46875 0.28125 0  0.5 0.28125 0  0.53125 0.28125 0  0.5625 0.28125 0  0.59375 0.28125 0  0.625 0.28125 0  0.65625 0.28125 0  0.6875 0.28125 0  0.71875 0.28125 0  0.75 0.28125 0  0.78125 0.28125 0  0.8125 0.28125 0  0.84375 0.28125 0  0.875 0.28125 0  0.90625 0.28125 0  0.9375 0.28125 0  0.96875 0.28125 0  1 0.28125 0  0 0.3125 0  0.03125 0.3125 0  0.0625 0.3125 0  0.09375 0.3125 0  0.125 0.3125 0  0.15625 0.3125 0  0.1875 0.3125 0  0.21875 0.3125 0  0.25 0.3125 0  0.28125 0.3125 0  0.3125 0.3125 0  0.34375 0.3125 0  0.375 0.3125 0  0.40625 0.3125 0  0.4375 0.3125 0  0.46875 0.3125 0  0.5 0.3125 0  0.53125 0.3125 0  0.5625 0.3125 0  0.59375 0.3125 0  0.625 0.3125 0  0.65625 0.3125 0  0.6875 0.3125 0  0.71875 0.3125 0  0.75 0.3125 0  0.78125 0.3125 0  0.8125 0.3125 0  0.84375 0.3125 0  0.875 0.3125 0  0.90625 0.3125 0  0.9375 0.3125 0  0.96875 0.3125 0  1 0.3125 0  0 0.34375 0  0.03125 0.34375 0  0.0625 0.34375 0  0.09375 0.34375 0  0.125 0.34375 0  0.15625 0.34375 0  0.1875 0.34375 0  0.21875 0.34375 0  0.25 0.34375 0  0.28125 0.34375 0  0.3125 0.34375 0  0.34375 0.34375 0  0.375 0.34375 0  0.40625 0.34375 0  0.4375 0.34375 0  0.46875 0.34375 0  0.5 0.34375 0  0.53125 0.34375 0  0.5625 0.34375 0  0.59375 0.34375 0  0.625 0.34375 0  0.65625 0.34375 0  0.6875 0.34375 0  0.71875 0.34375 0  0.75 0.34375 0  0.78125 0.34375 0  0.8125 0.34375 0  0.84375 0.34375 0  0.875 0.34375 0  0.90625 0.34375 0  0.9375 0.34375 0  0.96875 0.34375 0  1 0.34375 0  0 0.375 0  0.03125 0.375 0  0.0625 0.375 0  0.09375 0.375 0  0.125 0.375 0  0.15625 0.375 0  0.1875 0.375 0  0.21875 0.375 0  0.25 0.375 0  0.28125 0.375 0  0.3125 0.375 0  0.34375 0.375 0  0.375 0.375 0  0.40625 0.375 0  0.4375 0.375 0  0.46875 0.375 0  0.5 0.375 0  0.53125 0.375 0  0.5625 0.375 0  0.59375 0.375 0  0.625 0.375 0  0.65625 0.375 0  0.6875 0.375 0  0.71875 0.375 0  0.75 0.375 0  0.78125 0.375 0  0.8125 0.375 0  0.84375 0.375 0  0.875 0.375 0  0.90625 0.375 0  0.9375 0.375 0  0.96875 0.375 0  1 0.375 0  0 0.40625 0  0.03125 0.40625 0  0.0625 0.40625 0  0.09375 0.40625 0  0.125 0.40625 0  0.15625 0.40625 0  0.1875 0.40625 0  0.21875 0.40625 0  0.25 0.40625 0  0.28125 0.40625 0  0.3125 0.40625 0  0.34375 0.40625 0  0.375 0.40625 0  0.40625 0.40625 0  0.4375 0.40625 0  0.46875 0.40625 0  0.5 0.40625 0  0.53125 0.40625 0  0.5625 0.40625 0  0.59375 0.40625 0  0.625 0.40625 0  0.65625 0.40625 0  0.6875 0.40625 0  0.71875 0.40625 0  0.75 0.40625 0  0.78125 0.40625 0  0.8125 0.40625 0  0.84375 0.40625 0  0.875 0.40625 0  0.90625 0.40625 0  0.9375 0.40625 0  0.96875 0.40625 0  1 0.40625 0  0 0.4375 0  0.03125 0.4375 0  0.0625 0.4375 0  0.09375 0.4375 0  0.125 0.4375 0  0.15625 0.4375 0  0.1875 0.4375 0  0.21875 0.4375 0  0.25 0.4375 0  0.28125 0.4375 0  0.3125 0.4375 0  0.34375 0.4375 0  0.375 0.4375 0  0.40625 0.4375 0  0.4375 0.4375 0  0.46875 0.4375 0  0.5 0.4375 0  0.53125 0.4375 0  0.5625 0.4375 0  0.59375 0.4375 0  0.625 0.4375 0  0.65625 0.4375 0  0.6875 0.4375 0  0.71875 0.4375 0  0.75 0.4375 0  0.78125 0.4375 0  0.8125 0.4375 0  0.84375 0.4375 0  0.875 0.4375 0  0.90625 0.4375 0  0.9375 0.4375 0  0.96875 0.4375 0  1 0.4375 0  0 0.46875 0  0.03125 0.46875 0  0.0625 0.46875 0  0.09375 0.46875 0  0.125 0.46875 0  0.15625 0.46875 0  0.1875 0.46875 0  0.21875 0.46875 0  0.25 0.46875 0  0.28125 0.46875 0  0.3125 0.46875 0  0.34375 0.46875 0  0.375 0.46875 0  0.40625 0.46875 0  0.4375 0.46875 0  0.46875 0.46875 0  0.5 0.46875 0  0.53125 0.46875 0  0.5625 0.46875 0  0.59375 0.46875 0  0.625 0.46875 0  0.65625 0.46875 0  0.6875 0.46875 0  0.71875 0.46875 0  0.75 0.46875 0  0.78125 0.46875 0  0.8125 0.46875 0  0.84375 0.46875 0  0.875 0.46875 0  0.90625 0.46875 0  0.9375 0.46875 0  0.96875 0.46875 0  1 0.46875 0  0 0.5 0  0.03125 0.5 0  0.0625 0.5 0  0.09375 0.5 0  0.125 0.5 0  0.15625 0.5 0  0.1875 0.5 0  0.21875 0.5 0  0.25 0.5 0  0.28125 0.5 0  0.3125 0.5 0  0.34375 0.5 0  0.375 0.5 0  0.40625 0.5 0  0.4375 0.5 0  0.46875 0.5 0  0.5 0.5 0  0.53125 0.5 0  0.5625 0.5 0  0.59375 0.5 0  0.625 0.5 0  0.65625 0.5 0  0.6875 0.5 0  0.71875 0.5 0  0.75 0.5 0  0.78125 0.5 0  0.8125 0.5 0  0.84375 0.5 0  0.875 0.5 0  0.90625 0.5 0  0.9375 0.5 0  0.96875 0.5 0  1 0.5 0  0 0.53125 0  0.03125 0.53125 0  0.0625 0.53125 0  0.09375 0.53125 0  0.125 0.53125 0  0.15625 0.53125 0  0.1875 0.53125 0  0.21875 0.53125 0  0.25 0.53125 0  0.28125 0.53125 0  0.3125 0.53125 0  0.34375 0.53125 0  0.375 0.53125 0  0.40625 0.53125 0  0.4375 0.53125 0  0.46875 0.53125 0  0.5 0.53125 0  0.53125 0.53125 0  0.5625 0.53125 0  0.59375 0.53125 0  0.625 0.53125 0  0.65625 0.53125 0  0.6875 0.53125 0  0.71875 0.53125 0  0.75 0.53125 0  0.78125 0.531
[...]
<PointData  Vectors="f_309"> 
<DataArray  type="Float64"  Name="f_309"  NumberOfComponents="3" format="ascii">0.0000000000000000e+00 -0.0000000000000000e+00 0.0000000000000000e+00  9.8174770424681021e-02 -0.0000000000000000e+00 0.0000000000000000e+00  1.9634954084936204e-01 -0.0000000000000000e+00 0.0000000000000000e+00  2.9452431127404310e-01 -0.0000000000000000e+00 0.0000000000000000e+00  3.9269908169872408e-01 -0.0000000000000000e+00 0.0000000000000000e+00  4.9087385212340517e-01 -0.0000000000000000e+00 0.0000000000000000e+00  5.8904862254808621e-01 -0.0000000000000000e+00 0.0000000000000000e+00  6.8722339297276724e-01 -0.0000000000000000e+00 0.0000000000000000e+00  7.8539816339744817e-01 -0.0000000000000000e+00 0.0000000000000000e+00  8.8357293382212942e-01 -0.0000000000000000e+00 0.0000000000000000e+00  9.8174770424681035e-01 -0.0000000000000000e+00 0.0000000000000000e+00  1.0799224746714913e+00 -0.0000000000000000e+00 0.0000000000000000e+00  1.1780972450961724e+00 -0.0000000000000000e+00 0.0000000000000000e+00  1.2762720155208536e+00 -0.0000000000000000e+00 0.0000000000000000e+00  1.3744467859455345e+00 -0.0000000000000000e+00 0.0000000000000000e+00  1.4726215563702154e+00 -0.0000000000000000e+00 0.0000000000000000e+00  1.5707963267948963e+00 -0.0000000000000000e+00 0.0000000000000000e+00  1.6689710972195777e+00 -0.0000000000000000e+00 0.0000000000000000e+00  1.7671458676442588e+00 -0.0000000000000000e+00 0.0000000000000000e+00  1.8653206380689396e+00 -0.0000000000000000e+00 0.0000000000000000e+00  1.9634954084936207e+00 -0.0000000000000000e+00 0.0000000000000000e+00  2.0616701789183018e+00 -0.0000000000000000e+00 0.0000000000000000e+00  2.1598449493429825e+00 -0.0000000000000000e+00 0.0000000000000000e+00  2.2580197197676637e+00 -0.0000000000000000e+00 0.0000000000000000e+00  2.3561944901923448e+00 -0.0000000000000000e+00 0.0000000000000000e+00  2.4543692606170260e+00 -0.0000000000000000e+00 0.0000000000000000e+00  2.5525440310417071e+00 -0.0000000000000000e+00 0.0000000000000000e+00  2.6507188014663878e+00 -0.0000000000000000e+00 0.0000000000000000e+00  2.7488935718910690e+00 -0.0000000000000000e+00 0.0000000000000000e+00  2.8470683423157501e+00 -0.0000000000000000e+00 0.0000000000000000e+00  2.9452431127404308e+00 -0.0000000000000000e+00 0.0000000000000000e+00  3.0434178831651120e+00 -0.0000000000000000e+00 0.0000000000000000e+00  3.1415926535897931e+00 -0.0000000000000000e+00 0.0000000000000000e+00  0.0000000000000000e+00 -9.8174770424681021e-02 0.0000000000000000e+00  9.8173377244958379e-02 -9.8173377244959531e-02 0.0000000000000000e+00  1.9634420186796789e-01 -9.8170637795662957e-02 0.0000000000000000e+00  2.9450988265400557e-01 -9.8166853229389298e-02 0.0000000000000000e+00  3.9266756380570195e-01 -9.8162138664458928e-02 0.0000000000000000e+00  4.9081439793261494e-01 -9.8156525503343195e-02 0.0000000000000000e+00  5.8894756334347564e-01 -9.8150015841861837e-02 0.0000000000000000e+00  6.8706425442544561e-01 -9.8142605238124597e-02 0.0000000000000000e+00  7.8516167375322909e-01 -9.8134289427855667e-02 0.0000000000000000e+00  8.8323702747869970e-01 -9.8125065620476237e-02 0.0000000000000000e+00  9.8128752266269370e-01 -9.8114932359856508e-02 0.0000000000000000e+00  1.0793103656354524e+00 -9.8103889140376918e-02 0.0000000000000000e+00  1.1773027609032114e+00 -9.8091936063823271e-02 0.0000000000000000e+00  1.2752619103452465e+00 -9.8079073567454975e-02 0.0000000000000000e+00  1.3731850125530685e+00 -9.8065302196876245e-02 0.0000000000000000e+00  1.4710692622164436e+00 -9.8050622384287800e-02 0.0000000000000000e+00  1.5689118494844718e+00 -9.8035034192372500e-02 0.0000000000000000e+00  1.6667099592421284e+00 -9.8018536976833909e-02 0.0000000000000000e+00  1.7644607702492972e+00 -9.8001128911705759e-02 0.0000000000000000e+00  1.8621614541030449e+00 -9.7982806301413788e-02 0.0000000000000000e+00  1.9598091740147403e+00 -9.7963562578467125e-02 0.0000000000000000e+00  2.0574010834718646e+00 -9.7943386847894900e-02 0.0000000000000000e+00  2.1549343250279014e+00 -9.7922261798870383e-02 0.0000000000000000e+00  2.2524060298506892e+00 -9.7900160763969235e-02 0.0000000000000000e+00  2.3498133195115432e+00 -9.7877043723254703e-02 0.0000000000000000e+00  2.4471533134409604e+00 -9.7852852304463278e-02 0.0000000000000000e+00  2.5444231500703696e+00 -9.7827505137639437e-02 0.0000000000000000e+00  2.6416200409486903e+00 -9.7800900752414988e-02 0.0000000000000000e+00  2.7387414050021706e+00 -9.7772960216511093e-02 0.0000000000000000e+00  2.8357851954818107e+00 -9.7743844825572218e-02 0.0000000000000000e+00  2.9327506543946851e+00 -9.7714890278184946e-02 0.0000000000000000e+00  3.0296396680412916e+00 -9.7692325909067582e-02 0.0000000000000000e+00  3.1264650262781402e+00 -9.7702032071191880e-02 0.0000000000000000e+00  0.0000000000000000e+00 -1.9634954084936204e-01 0.0000000000000000e+00  9.8170637795659918e-02 -1.9634420186797272e-01 0.0000000000000000e+00  1.9633113409788669e-01 -1.9633113409788955e-01 0.0000000000000000e+00  2.9447018696987104e-01 -1.9631063486742922e-01 0.0000000000000000e+00  3.9257651310552549e-01 -1.9628276211394899e-01 0.0000000000000000e+00  4.9063890858267684e-01 -1.9624753103519693e-01 0.0000000000000000e+00  5.8864621260541516e-01 -1.9620494235021371e-01 0.0000000000000000e+00  6.8658728969193994e-01 -1.9615499234830486e-01 0.0000000000000000e+00  7.8445101984882259e-01 -1.9609767712914183e-01 0.0000000000000000e+00  8.8222629266805974e-01 -1.9603299399437663e-01 0.0000000000000000e+00  9.7990200380610792e-01 -1.9596094161813102e-01 0.0000000000000000e+00  1.0774670529153434e+00 -1.9588151979074214e-01 0.0000000000000000e+00  1.1749103424426366e+00 -1.9579472906002410e-01 0.0000000000000000e+00  1.2722207769389691e+00 -1.9570057036874888e-01 0.0000000000000000e+00  1.3693872626631962e+00 -1.9559904469226580e-01 0.0000000000000000e+00  1.4663987073442455e+00 -1.9549015263845293e-01 0.0000000000000000e+00  1.5632440200174362e+00 -1.9537389395542562e-01 0.0000000000000000e+00  1.6599121108904584e+00 -1.9525026687903335e-01 0.0000000000000000e+00  1.7563918912432503e+00 -1.9511926724241824e-01 0.0000000000000000e+00  1.8526722734423788e+00 -1.9498088725938070e-01 0.0000000000000000e+00  1.9487421712935378e+00 -1.9483511389665656e-01 0.0000000000000000e+00  2.0445905012250458e+00 -1.9468192678740390e-01 0.0000000000000000e+00  2.1402061853121319e+00 -1.9452129577433436e-01 0.0000000000000000e+00  2.2355781581452567e+00 -1.9435317855238610e-01 0.0000000000000000e+00  2.3306953814805009e+00 -1.9417751990351823e-01 0.0000000000000000e+00  2.4255468744172672e+00 -1.9399425670224688e-01 0.0000000000000000e+00  2.5201217743374507e+00 -1.9380334002108859e-01 0.0000000000000000e+00  2.6144094580898627e+00 -1.9360480477745037e-01 0.0000000000000000e+00  2.7083997768687094e+00 -1.9339896752278801e-01 0.0000000000000000e+00  2.8020834833103261e+00 -1.9318695624024412e-01 0.0000000000000000e+00  2.8954528849032624e+00 -1.9297203494615228e-01 0.0000000000000000e+00  2.9885023728915892e+00 -1.9276252955853573e-01 0.0000000000000000e+00  3.0812278316637944e+00 -1.9257673947898710e-01 0.0000000000000000e+00  0.0000000000000000e+00 -2.9452431127404310e-01 0.0000000000000000e+00  9.8166853229388021e-02 -2.9450988265401434e-01 0.0000000000000000e+00  1.9631063486742803e-01 -2.9447018696987859e-01 0.0000000000000000e+00  2.9440558550372181e-01 -2.9440558550373169e-01 0.0000000000000000e+00  3.9242644196075110e-01 -2.9431612852830941e-01 0.0000000000000000e+00  4.9034810102261300e-01 -2.9420180794451223e-01 0.0000000000000000e+00  5.8814554003843367e-01 -2.9406261247336629e-01 0.0000000000000000e+00  6.8579378597061302e-01 -2.9389853670617666e-01 0.0000000000000000e+00  7.8326790218415876e-01 -2.9370958130633268e-01 0.0000000000000000e+00  8.8054298269945752e-01 -2.9349575192309335e-01 0.0000000000000000e+00  9.7759415007103978e-01 -2.9325705815102343e-01 0.0000000000000000e+00  1.0743965552754957e+00 -2.9299351270601220e-01 0.0000000000000000e+00  1.1709253787966933e+00 -2.9270513078687505e-01 0.0000000000000000e+00  1.2671558324508483e+00 -2.9239192955336313e-01 0.0000000000000000e+00  1.3630631616840216e+00 -2.9205392764935423e-01 0.0000000000000000e+00  1.4586226481917239e+00 -2.9169114469891622e-01 0.0000000000000000e+00  1.5538096127929493e+00 -2.9130360070782868e-01 0.0000000000000000e+00  1.6485994185681223e+00 -2.9089131530851509e-01 0.0000000000000000e+00  1.7429674743658201e+00 -2.9045430680371320e-01 0.0000000000000000e+00  1.8368892389300908e+00 -2.8999259100114505e-01 0.0000000000000000e+00  1.9303402261447542e+00 -2.8950617992687561e-01 0.0000000000000000e+00  2.0232960123113450e+00 -2.8899508071259639e-01 0.0000000000000000e+00  2.1157322471001976e+00 -2.8845929541824761e-01 0.0000000000000000e+00  2.2076246710550977e+00 -2.8789882355552665e-01 0.0000000000000000e+00  2.2989491446256212e+00 -2.8731367125686141e-01 0.0000000000000000e+00  2.3896816970975450e+00 -2.8670387570885913e-01 0.0000000000000000e+00  2.4797986088119490e+00 -2.8606956334634437e-01 0.0000000000000000e+00  2.5692765457510833e+00 -2.8541108018827760e-01 0.0000000000000000e+00  2.6580927658891507e+00 -2.8472926846667929e-01 0.0000000000000000e+00  2.7462253906459337e+00 -2.8402601148105810e-01 0.0000000000000000e+00  2.8336536294187691e+00 -2.8330517129229571e-01 0.0000000000000000e+00  2.9203575804408386e+00 -2.8257377555809310e-01 0.0000000000000000e+00  3.0063167286600576e+00 -2.8184219331188037e-01 0.0000000000000000e+00  0.0000000000000000e+00 -3.9269908169872408e-01 0.0000000000000000e+00  9.8162138664456208e-02 -3.9266756380571510e-01 0.0000000000000000e+00  1.9628276211394111e-01 -3.9257651310552943e-01 0.0000000000000000e+00  2.9431612852829203e-01 -3.9242644196075938e-01 0.0000000000000000e+00  3.9221742257751835e-01 -3.9221742257752668e-01 0.0000000000000000e+00  4.8994211590550896e-01 -3.9194944915832558e-01 0.0000000000000000e+00  5.8744582508378385e-01 -3.9162252076453513e-01 0.0000000000000000e+00  6.8468426763773860e-01 -3.9123665422413750e-01 0.0000000000000000e+00  7.8161324882161332e-01 -3.9079188325405717e-01 0.0000000000000000e+00  8.7818866000621598e-01 -3.9028825578618925e-01 0.0000000000000000e+00  9.7436648235406131e-01 -3.8972583175866632e-01 0.0000000000000000e+00  1.0701027932980998e+00 -3.8910468157051969e-01 0.0000000000000000e+00  1.1653537746607372e+00 -3.8842488503545741e-01 0.0000000000000000e+00  1.2600757217999980e+00 -3.8768653064632219e-01 0.0000000000000000e+00  1.3542250534442626e+00 -3.8688971500538211e-01 0.0000000000000000e+00  1.4477583220420254e+00 -3.8603454231088957e-01 0.0000000000000000e+00  1.5406322245722153e+00 -3.8512112382859348e-01 0.0000000000000000e+00  1.6328036138704203e+00 -3.8414957731596627e-01 0.0000000000000000e+00  1.7242295106576433e+00 -3.8312002643065729e-01 0.0000000000000000e+00  1.8148671166434180e+00 -3.8203260026067692e-01 0.0000000000000000e+00  1.9046738293571794e+00 -3.8088743331990771e-01 0.0000000000000000e+00  1.9936072597980898e+00 -3.7968466673656909e-01 0.0000000000000000e+00  2.0816252546598748e+00 -3.7842445210488074e-01 0.0000000000000000e+00  2.1686859258671927e+00 -3.7710696086379986e-01 0.0000000000000000e+00  2.2547476914741247e+00 -3.7573240467057056e-01 0.0000000000000000e+00  2.3397693334056808e+00 -3.7430107690254549e-01 0.0000000000000000e+00  2.4237100780951359e+00 -3.7281343322996569e-01 0.0000000000000000e+00  2.5065297030433316e+00 -3.7127024023792371e-01 0.0000000000000000e+00  2.5881886597621517e+00 -3.6967283014194141e-01 0.0000000000000000e+00  2.6686481734694918e+00 -3.6802348417779684e-01 0.0000000000000000e+00  2.7478702388662861e+00 -3.6632586436697356e-01 0.0000000000000000e+00  2.8258174678860342e+00 -3.6458510730435878e-01 0.0000000000000000e+00  2.9024531521394308e+00 -3.6280664401742885e-01 0.0000000000000000e+00  0.0000000000000000e+00 -4.9087385212340517e-01 0.0000000000000000e+00  9.8156525503333453e-02 -4.9081439793262099e-01 0.0000000000000000e+00  1.9624753103517187e-01 -4.9063890858267617e-01 0.0000000000000000e+00  2.9420180794447931e-01 -4.9034810102262327e-01 0.0000000000000000e+00  3.9194944915830071e-01 -4.8994211590553260e-01 0.0000000000000000e+00  4.8942099980950610e-01 -4.8942099980952808e-01 0.0000000000000000e+00  5.8654725309480182e-01 -4.8878481717868438e-01 0.0000000000000000e+00  6.8325919966491044e-01 -4.8803367055111257e-01 0.0000000000000000e+00  7.7948802149372565e-01 -4.8716770025789968e-01 0.0000000000000000e+00  8.7516510207123066e-01 -4.8618708094449364e-01 0.0000000000000000e+00  9.7022204384707489e-01 -4.8509201855835998e-01 0.0000000000000000e+00  1.0645906894165917e+00 -4.8388274824573119e-01 0.0000000000000000e+00  1.1582031448557177e+00 -4.8255953297396281e-01 0.0000000000000000e+00  1.2509918043881962e+00 -4.8112266263767417e-01 0.0000000000000000e+00  1.3428893759462159e+00 -4.7957245346290711e-01 0.0000000000000000e+00  1.4338289074041590e+00 -4.7790924758494491e-01 0.0000000000000000e+00  1.5237438134162418e+00 -4.7613341274227172e-01 0.0000000000000000e+00  1.6125679029212423e+00 -4.7424534210251984e-01 0.0000000000000000e+00  1.7002354075194468e+00 -4.7224545434512183e-01 0.0000000000000000e+00  1.7866810111078537e+00 -4.7013419429082032e-01 0.0000000000000000e+00  1.8718398814013066e+00 -4.6791203465372483e-01 0.0000000000000000e+00  1.9556477042928584e+00 -4.6557947997145799e-01 0.0000000000000000e+00  2.0380407224166088e+00 -4.6313707459194831e-01 0.0000000000000000e+00  2.1189557797133771e+00 -4.6058541795558150e-01 0.0000000000000000e+00  2.1983303740491542e+00 -4.5792519257392444e-01 0.0000000000000000e+00  2.2761027194497530e+00 -4.5515721322285463e-01 0.0000000000000000e+00  2.3522118171348465e+00 -4.5228250948375698e-01 0.0000000000000000e+00  2.4265975284361976e+00 -4.4930245529744695e-01 0.0000000000000000e+00  2.4992006318902145e+00 -4.4621895063623634e-01 0.0000000000000000e+00  2.5699628389028093e+00 -4.4303462269526489e-01 0.0000000000000000e+00  2.6388267795811831e+00 -4.3975291343017081e-01 0.0000000000000000e+00  2.7057361960467849e+00 -4.3637772632631777e-01 0.0000000000000000e+00  2.7706373651214142e+00 -4.3291208830022099e-01 0.0000000000000000e+00  0.0000000000000000e+00 -5.8904862254808621e-01 0.0000000000000000e+00  9.8150015841847862e-02 -5.8894756334346265e-01 0.0000000000000000e+00  1.9620494235018301e-01 -5.8864621260541072e-01 0.0000000000000000e+00  2.9406261247332660e-01 -5.8814554003844766e-01 0.0000000000000000e+00  3.9162252076449416e-01 -5.8744582508382359e-01 0.0000000000000000e+00  4.8878481717864941e-01 -5.8654725309482980e-01 0.0000000000000000e+00  5.8545005841855968e-01 -5.8545005841859710e-01 0.0000000000000000e+00  6.8151916236857502e-01 -5.8415455310179776e-01 0.0000000000000000e+00  7.7689342153140795e-01 -5.8266112829365169e-01 0.0000000000000000e+00  8.7147453760303339e-01 -5.8097025064671559e-01 0.0000000000000000e+00  9.6516466526768196e-01 -5.7908245884885146e-01 0.0000000000000000e+00  1.0578664606760557e+00 -5.7699836113087277e-01 0.0000000000000000e+00  1.1494831325501054e+00 -5.7471863363659936e-01 0.0000000000000000e+00  1.2399184948580071e+00 -5.7224401940556568e-01 0.0000000000000000e+00  1.3290770204840263e+00 -5.6957532776640596e-01 0.0000000000000000e+00  1.4168638955887383e+00 -5.6671343401829377e-01 0.0000000000000000e+00  1.5031850745339619e+00 -5.6365927936518678e-01 0.0000000000000000e+00  1.5879473353870988e+00 -5.6041387116873886e-01 0.0000000000000000e+00  1.6710583361502973e+00 -5.5697828372269798e-01 0.0000000000000000e+00  1.7524266719995214e+00 -5.5335365994893959e-01 0.0000000000000000e+00  1.8319619339705244e+00 -5.4954121471919215e-01 0.0000000000000000e+00  1.9095747696804732e+00 -5.4554224097075854e-01 0.0000000000000000e+00  1.9851769467719054e+00 -5.4135812048668053e-01 0.0000000000000000e+00  2.0586814196795293e+00 -5.3699034220714714e-01 0.0000000000000000e+00  2.1300023997783479e+00 -5.3244053220376875e-01 0.0000000000000000e+00  2.1990554274909910e+00 -5.2771050065299185e-01 0.0000000000000000e+00  2.2657574418882369e+00 -5.2280231117792386e-01 0.0000000000000000e+00  2.3300268386038701e+00 -5.1771837396016118e-01 0.0000000000000000e+00  2.3917835036648292e+00 -5.1246155011946015e-01 0.0000000000000000e+00  2.4509488241647999e+00 -5.0703522069953699e-01 0.0000000000000000e+00  2.5074457571129254e+00 -5.0144320529377662e-01 0.0000000000000000e+00  2.5611993295295519e+00 -4.9568929989383520e-01 0.0000000000000000e+00  2.6121388256928295e+00 -4.8977602981740553e-01 0.0000000000000000e+00  0.0000000000000000e+00 -6.8722339297276724e-01 0.0000000000000000e+00  9.8142605238120031e-02 -6.8706425442542574e-01 0.0000000000000000e+00  1.9615499234828751e-01 -6.8658728969193616e-01 0.0000000000000000e+00  2.9389853670615529e-01 -6.8579378597061047e-01 0.0000000000000000e+00  3.9123665422409232e-01 -6.8468426763778334e-01 0.0000000000000000e+00  4.8803367055107655e-01 -6.8325919966494375e-01 0.0000000000000000e+00  5.8415455310177522e-01 -6.8151916236861299e-01 0.0000000000000000e+00  6.7946488894989476e-01 -6.7946488894992019e-01 0.0000000000000000e+00  7.7383093621049281e-01 -6.7709726912492574e-01 0.0000000000000000e+00  8.6711970129037741e-01 -6.7441734578887946e-01 0.0000000000000000e+00  9.5919902716712901e-01 -6.7142631129573216e-01 0.0000000000000000e+00  1.0499376871187536e+00 -6.6812550463136977e-01 0.0000000000000000e+00  1.1392054813726831e+00 -6.6451640948166302e-01 0.0000000000000000e+00  1.2268733353491865e+00 -6.6060065296875092e-01 0.0000000000000000e+00  1.3128133987488704e+00 -6.5638000485716552e-01 0.0000000000000000e+00  1.3968991450511603e+00 -6.5185637711628885e-01 0.0000000000000000e+00  1.4790054711886209e+00 -6.4703182382587865e-01 0.0000000000000000e+00  1.5590087973010764e+00 -6.4190854152561128e-01 0.0000000000000000e+00  1.6367871665790430e+00 -6.3648887025485656e-01 0.0000000000000000e+00  1.7122203452886500e+00 -6.3077529572106139e-01 0.0000000000000000e+00  1.7851899231193611e+00 -6.2477045330186021e-01 0.0000000000000000e+00  1.8555794139803901e+00 -6.1847713494605461e-01 0.0000000000000000e+00  1.9232743572191793e+00 -6.1189830050232652e-01 0.0000000000000000e+00  1.9881624188179516e+00 -6.0503709551735574e-01 0.0000000000000000e+00  2.0501334912398379e+00 -5.9789687792099622e-01 0.0000000000000000e+00  2.1090797890102464e+00 -5.9048125577607480e-01 0.0000000000000000e+00  2.1648959348095533e+00 -5.8279413638486621e-01 0.0000000000000000e+00  2.2174790288650166e+00 -5.7483978161368032e-01 0.0000000000000000e+00  2.2667286974744654e+00 -5.6662285229365372e-01 0.0000000000000000e+00  2.3125471402536228e+00 -5.5814840154412526e-01 0.0000000000000000e+00  2.3548392873020365e+00 -5.4942173482058065e-01 0.0000000000000000e+00  2.3935134749091653e+00 -5.4044796708696607e-01 0.0000000000000000e+00  2.4284839614324900e+00 -5.3123086656335716e-01 0.0000000000000000e+00  0.0000000000000000e+00 -7.8539816339744817e-01 0.0000000000000000e+00  9.8134289427845384e-02 -7.8516167375320478e-01 0.0000000000000000e+00  1.9609767712909776e-01 -7.8445101984880417e-01 0.0000000000000000e+00  2.9370958130627983e-01 -7.8326790218415221e-01 0.0000000000000000e+00  3.9079188325399017e-01 -7.8161324882166539e-01 0.0000000000000000e+00  4.8716770025787065e-01 -7.7948802149376750e-01 0.0000000000000000e+00  5.8266112829363581e-01 -7.7689342153147323e-01 0.0000000000000000e+00  6.7709726912491119e-01 -7.7383093621053467e-01 0.0000000000000000e+00  7.7030234463160496e-01 -7.7030234463158564e-01 0.0000000000000000e+00  8.6210384151340114e-01 -7.6630971464982300e-01 0.0000000000000000e+00  9.5233066852011616e-01 -7.6185539879970232e-01 0.0000000000000000e+00  1.0408133195443130e+00 -7.5694203090425305e-01 0.0000000000000000e+00  1.1273840395388801e+00 -7.5157252349155801e-01 0.0000000000000000e+00  1.2118769916277599e+00 -7.4575006582577208e-01 0.0000000000000000e+00  1.2941284244359847e+00 -7.3947812236768606e-01 0.0000000000000000e+00  1.3739768390213063e+00 -7.3276043156201109e-01 0.0000000000000000e+00  1.45126315