<?xml version="1.0"?>
<VTKFile type="UnstructuredGrid"  version="0.1"  >
<UnstructuredGrid>
<Piece  NumberOfPoints="1089" NumberOfCells="2048">
<Points>
<DataArray  type="Float64"  NumberOfComponents="3"  format="ascii">0 0 0  0.03125 0 0  0.0625 0 0  0.09375 0 0  0.125 0 0  0.15625 0 0  0.1875 0 0  0.21875 0 0  0.25 0 0  0.28125 0 0  0.3125 0 0  0.34375 0 0  0.375 0 0  0.40625 0 0  0.4375 0 0  0.46875 0 0  0.5 0 0  0.53125 0 0  0.5625 0 0  0.59375 0 0  0.625 0 0  0.65625 0 0  0.6875 0 0  0.71875 0 0  0.75 0 0  0.78125 0 0  0.8125 0 0  0.84375 0 0  0.875 0 0  0.90625 0 0  0.9375 0 0  0.96875 0 0  1 0 0  0 0.03125 0  0.03125 0.03125 0  0.0625 0.03125 0  0.09375 0.03125 0  0.125 0.03125 0  0.15625 0.03125 0  0.1875 0.03125 0  0.21875 0.03125 0  0.25 0.03125 0  0.28125 0.03125 0  0.3125 0.03125 0  0.34375 0.03125 0  0.375 0.03125 0  0.40625 0.03125 0  0.4375 0.03125 0  0.46875 0.03125 0  0.5 0.03125 0  0.53125 0.03125 0  0.5625 0.03125 0  0.59375 0.03125 0  0.625 0.03125 0  0.65625 0.03125 0  0.6875 0.03125 0  0.71875 0.03125 0  0.75 0.03125 0  0.78125 0.03125 0  0.8125 0.03125 0  0.84375 0.03125 0  0.875 0.03125 0  0.90625 0.03125 0  0.9375 0.03125 0  0.96875 0.03125 0  1 0.03125 0  0 0.0625 0  0.03125 0.0625 0  0.0625 0.0625 0  0.09375 0.0625 0  0.125 0.0625 0  0.15625 0.0625 0  0.1875 0.0625 0  0.21875 0.0625 0  0.25 0.0625 0  0.28125 0.0625 0  0.3125 0.0625 0  0.34375 0.0625 0  0.375 0.0625 0  0.40625 0.0625 0  0.4375 0.0625 0  0.46875 0.0625 0  0.5 0.0625 0  0.53125 0.0625 0  0.5625 0.0625 0  0.59375 0.0625 0  0.625 0.0625 0  0.65625 0.0625 0  0.6875 0.0625 0  0.71875 0.0625 0  0.75 0.0625 0  0.78125 0.0625 0  0.8125 0.0625 0  0.84375 0.0625 0  0.875 0.0625 0  0.90625 0.0625 0  0.9375 0.0625 0  0.96875 0.0625 0  1 0.0625 0  0 0.09375 0  0.03125 0.09375 0  0.0625 0.09375 0  0.09375 0.09375 0  0.125 0.09375 0  0.15625 0.09375 0  0.1875 0.09375 0  0.21875 0.09375 0  0.25 0.09375 0  0.28125 0.09375 0  0.3125 0.09375 0  0.34375 0.09375 0  0.375 0.09375 0  0.40625 0.09375 0  0.4375 0.09375 0  0.46875 0.09375 0  0.5 0.09375 0  0.53125 0.09375 0  0.5625 0.09375 0  0.59375 0.09375 0  0.625 0.09375 0  0.65625 0.09375 0  0.6875 0.09375 0  0.71875 0.09375 0  0.75 0.09375 0  0.78125 0.09375 0  0.8125 0.09375 0  0.84375 0.09375 0  0.875 0.09375 0  0.90625 0.09375 0  0.9375 0.09375 0  0.96875 0.09375 0  1 0.09375 0  0 0.125 0  0.03125 0.125 0  0.0625 0.125 0  0.09375 0.125 0  0.125 0.125 0  0.15625 0.125 0  0.1875 0.125 0  0.21875 0.125 0  0.25 0.125 0  0.28125 0.125 0  0.3125 0.125 0  0.34375 0.125 0  0.375 0.125 0  0.40625 0.125 0  0.4375 0.125 0  0.46875 0.125 0  0.5 0.125 0  0.53125 0.125 0  0.5625 0.125 0  0.59375 0.125 0  0.625 0.125 0  0.65625 0.125 0  0.6875 0.125 0  0.71875 0.125 0  0.75 0.125 0  0.78125 0.125 0  0.8125 0.125 0  0.84375 0.125 0  0.875 0.125 0  0.90625 0.125 0  0.9375 0.125 0  0.96875 0.125 0  1 0.125 0  0 0.15625 0  0.03125 0.15625 0  0.0625 0.15625 0  0.09375 0.15625 0  0.125 0.15625 0  0.15625 0.15625 0  0.1875 0.15625 0  0.21875 0.15625 0  0.25 0.15625 0  0.28125 0.15625 0  0.3125 0.15625 0  0.34375 0.15625 0  0.375 0.15625 0  0.40625 0.15625 0  0.4375 0.15625 0  0.46875 0.15625 0  0.5 0.15625 0  0.53125 0.15625 0  0.5625 0.15625 0  0.59375 0.15625 0  0.625 0.15625 0  0.65625 0.15625 0  0.6875 0.15625 0  0.71875 0.15625 0  0.75 0.15625 0  0.78125 0.15625 0  0.8125 0.15625 0  0.84375 0.15625 0  0.875 0.15625 0  0.90625 0.15625 0  0.9375 0.15625 0  0.96875 0.15625 0  1 0.15625 0  0 0.1875 0  0.03125 0.1875 0  0.0625 0.1875 0  0.09375 0.1875 0  0.125 0.1875 0  0.15625 0.1875 0  0.1875 0.1875 0  0.21875 0.1875 0  0.25 0.1875 0  0.28125 0.1875 0  0.3125 0.1875 0  0.34375 0.1875 0  0.375 0.1875 0  0.40625 0.1875 0  0.4375 0.1875 0  0.46875 0.1875 0  0.5 0.1875 0  0.53125 0.1875 0  0.5625 0.1875 0  0.59375 0.1875 0  0.625 0.1875 0  0.65625 0.1875 0  0.6875 0.1875 0  0.71875 0.1875 0  0.75 0.1875 0  0.78125 0.1875 0  0.8125 0.1875 0  0.84375 0.1875 0  0.875 0.1875 0  0.90625 0.1875 0  0.9375 0.1875 0  0.96875 0.1875 0  1 0.1875 0  0 0.21875 0  0.03125 0.21875 0  0.0625 0.21875 0  0.09375 0.21875 0  0.125 0.21875 0  0.15625 0.21875 0  0.1875 0.21875 0  0.21875 0.21875 0  0.25 0.21875 0  0.28125 0.21875 0  0.3125 0.21875 0  0.34375 0.21875 0  0.375 0.21875 0  0.40625 0.21875 0  0.4375 0.21875 0  0.46875 0.21875 0  0.5 0.21875 0  0.53125 0.21875 0  0.5625 0.21875 0  0.59375 0.21875 0  0.625 0.21875 0  0.65625 0.21875 0  0.6875 0.21875 0  0.71875 0.21875 0  0.75 0.21875 0  0.78125 0.21875 0  0.8125 0.21875 0  0.84375 0.21875 0  0.875 0.21875 0  0.90625 0.21875 0  0.9375 0.21875 0  0.96875 0.21875 0  1 0.21875 0  0 0.25 0  0.03125 0.25 0  0.0625 0.25 0  0.09375 0.25 0  0.125 0.25 0  0.15625 0.25 0  0.1875 0.25 0  0.21875 0.25 0  0.25 0.25 0  0.28125 0.25 0  0.3125 0.25 0  0.34375 0.25 0  0.375 0.25 0  0.40625 0.25 0  0.4375 0.25 0  0.46875 0.25 0  0.5 0.25 0  0.53125 0.25 0  0.5625 0.25 0  0.59375 0.25 0  0.625 0.25 0  0.65625 0.25 0  0.6875 0.25 0  0.71875 0.25 0  0.75 0.25 0  0.78125 0.25 0  0.8125 0.25 0  0.84375 0.25 0  0.875 0.25 0  0.90625 0.25 0  0.9375 0.25 0  0.96875 0.25 0  1 0.25 0  0 0.28125 0  0.03125 0.28125 0  0.0625 0.28125 0  0.09375 0.28125 0  0.125 0.28125 0  0.15625 0.28125 0  0.1875 0.28125 0  0.21875 0.28125 0  0.25 0.28125 0  0.28125 0.28125 0  0.3125 0.28125 0  0.34375 0.28125 0  0.375 0.28125 0  0.40625 0.28125 0  0.4375 0.28125 0  0.46875 0.28125 0  0.5 0.28125 0  0.53125 0.28125 0  0.5625 0.28125 0  0.59375 0.28125 0  0.625 0.28125 0  0.65625 0.28125 0  0.6875 0.28125 0  0.71875 0.28125 0  0.75 0.28125 0  0.78125 0.28125 0  0.8125 0.28125 0  0.84375 0.28125 0  0.875 0.28125 0  0.90625 0.28125 0  0.9375 0.28125 0  0.96875 0.28125 0  1 0.28125 0  0 0.3125 0  0.03125 0.3125 0  0.0625 0.3125 0  0.09375 0.3125 0  0.125 0.3125 0  0.15625 0.3125 0  0.1875 0.3125 0  0.21875 0.3125 0  0.25 0.3125 0  0.28125 0.3125 0  0.3125 0.3125 0  0.34375 0.3125 0  0.375 0.3125 0  0.40625 0.3125 0  0.4375 0.3125 0  0.46875 0.3125 0  0.5 0.3125 0  0.53125 0.3125 0  0.5625 0.3125 0  0.59375 0.3125 0  0.625 0.3125 0  0.65625 0.3125 0  0.6875 0.3125 0  0.71875 0.3125 0  0.75 0.3125 0  0.78125 0.3125 0  0.8125 0.3125 0  0.84375 0.3125 0  0.875 0.3125 0  0.90625 0.3125 0  0.9375 0.3125 0  0.96875 0.3125 0  1 0.3125 0  0 0.34375 0  0.03125 0.34375 0  0.0625 0.34375 0  0.09375 0.34375 0  0.125 0.34375 0  0.15625 0.34375 0  0.1875 0.34375 0  0.21875 0.34375 0  0.25 0.34375 0  0.28125 0.34375 0  0.3125 0.34375 0  0.34375 0.34375 0  0.375 0.34375 0  0.40625 0.34375 0  0.4375 0.34375 0  0.46875 0.34375 0  0.5 0.34375 0  0.53125 0.34375 0  0.5625 0.34375 0  0.59375 0.34375 0  0.625 0.34375 0  0.65625 0.34375 0  0.6875 0.34375 0  0.71875 0.34375 0  0.75 0.34375 0  0.78125 0.34375 0  0.8125 0.34375 0  0.84375 0.34375 0  0.875 0.34375 0  0.90625 0.34375 0  0.9375 0.34375 0  0.96875 0.34375 0  1 0.34375 0  0 0.375 0  0.03125 0.375 0  0.0625 0.375 0  0.09375 0.375 0  0.125 0.375 0  0.15625 0.375 0  0.1875 0.375 0  0.21875 0.375 0  0.25 0.375 0  0.28125 0.375 0  0.3125 0.375 0  0.34375 0.375 0  0.375 0.375 0  0.40625 0.375 0  0.4375 0.375 0  0.46875 0.375 0  0.5 0.375 0  0.53125 0.375 0  0.5625 0.375 0  0.59375 0.375 0  0.625 0.375 0  0.65625 0.375 0  0.6875 0.375 0  0.71875 0.375 0  0.75 0.375 0  0.78125 0.375 0  0.8125 0.375 0  0.84375 0.375 0  0.875 0.375 0  0.90625 0.375 0  0.9375 0.375 0  0.96875 0.375 0  1 0.375 0  0 0.40625 0  0.03125 0.40625 0  0.0625 0.40625 0  0.09375 0.40625 0  0.125 0.40625 0  0.15625 0.40625 0  0.1875 0.40625 0  0.21875 0.40625 0  0.25 0.40625 0  0.28125 0.40625 0  0.3125 0.40625 0  0.34375 0.40625 0  0.375 0.40625 0  0.40625 0.40625 0  0.4375 0.40625 0  0.46875 0.40625 0  0.5 0.40625 0  0.53125 0.40625 0  0.5625 0.40625 0  0.59375 0.40625 0  0.625 0.40625 0  0.65625 0.40625 0  0.6875 0.40625 0  0.71875 0.40625 0  0.75 0.40625 0  0.78125 0.40625 0  0.8125 0.40625 0  0.84375 0.40625 0  0.875 0.40625 0  0.90625 0.40625 0  0.9375 0.40625 0  0.96875 0.40625 0  1 0.40625 0  0 0.4375 0  0.03125 0.4375 0  0.0625 0.4375 0  0.09375 0.4375 0  0.125 0.4375 0  0.15625 0.4375 0  0.1875 0.4375 0  0.21875 0.4375 0  0.25 0.4375 0  0.28125 0.4375 0  0.3125 0.4375 0  0.34375 0.4375 0  0.375 0.4375 0  0.40625 0.4375 0  0.4375 0.4375 0  0.46875 0.4375 0  0.5 0.4375 0  0.53125 0.4375 0  0.5625 0.4375 0  0.59375 0.4375 0  0.625 0.4375 0  0.65625 0.4375 0  0.6875 0.4375 0  0.71875 0.4375 0  0.75 0.4375 0  0.78125 0.4375 0  0.8125 0.4375 0  0.84375 0.4375 0  0.875 0.4375 0  0.90625 0.4375 0  0.9375 0.4375 0  0.96875 0.4375 0  1 0.4375 0  0 0.46875 0  0.03125 0.46875 0  0.0625 0.46875 0  0.09375 0.46875 0  0.125 0.46875 0  0.15625 0.46875 0  0.1875 0.46875 0  0.21875 0.46875 0  0.25 0.46875 0  0.28125 0.46875 0  0.3125 0.46875 0  0.34375 0.46875 0  0.375 0.46875 0  0.40625 0.46875 0  0.4375 0.46875 0  0.46875 0.46875 0  0.5 0.46875 0  0.53125 0.46875 0  0.5625 0.46875 0  0.59375 0.46875 0  0.625 0.46875 0  0.65625 0.46875 0  0.6875 0.46875 0  0.71875 0.46875 0  0.75 0.46875 0  0.78125 0.46875 0  0.8125 0.46875 0  0.84375 0.46875 0  0.875 0.46875 0  0.90625 0.46875 0  0.9375 0.46875 0  0.96875 0.46875 0  1 0.46875 0  0 0.5 0  0.03125 0.5 0  0.0625 0.5 0  0.09375 0.5 0  0.125 0.5 0  0.15625 0.5 0  0.1875 0.5 0  0.21875 0.5 0  0.25 0.5 0  0.28125 0.5 0  0.3125 0.5 0  0.34375 0.5 0  0.375 0.5 0  0.40625 0.5 0  0.4375 0.5 0  0.46875 0.5 0  0.5 0.5 0  0.53125 0.5 0  0.5625 0.5 0  0.59375 0.5 0  0.625 0.5 0  0.65625 0.5 0  0.6875 0.5 0  0.71875 0.5 0  0.75 0.5 0  0.78125 0.5 0  0.8125 0.5 0  0.84375 0.5 0  0.875 0.5 0  0.90625 0.5 0  0.9375 0.5 0  0.96875 0.5 0  1 0.5 0  0 0.53125 0  0.03125 0.53125 0  0.0625 0.53125 0  0.09375 0.53125 0  0.125 0.53125 0  0.15625 0.53125 0  0.1875 0.53125 0  0.21875 0.53125 0  0.25 0.53125 0  0.28125 0.53125 0  0.3125 0.53125 0  0.34375 0.53125 0  0.375 0.53125 0  0.40625 0.53125 0  0.4375 0.53125 0  0.46875 0.53125 0  0.5 0.53125 0  0.53125 0.53125 0  0.5625 0.53125 0  0.59375 0.53125 0  0.625 0.53125 0  0.65625 0.53125 0  0.6875 0.53125 0  0.71875 0.53125 0  0.75 0.53125 0  0.78125 0.531
[...]
<PointData  Vectors="f_516"> 
<DataArray  type="Float64"  Name="f_516"  NumberOfComponents="3" format="ascii">0.0000000000000000e+00 -0.0000000000000000e+00 0.0000000000000000e+00  9.8174770424681035e-02 -0.0000000000000000e+00 0.0000000000000000e+00  1.9634954084936207e-01 -0.0000000000000000e+00 0.0000000000000000e+00  2.9452431127404310e-01 -0.0000000000000000e+00 0.0000000000000000e+00  3.9269908169872414e-01 -0.0000000000000000e+00 0.0000000000000000e+00  4.9087385212340517e-01 -0.0000000000000000e+00 0.0000000000000000e+00  5.8904862254808621e-01 -0.0000000000000000e+00 0.0000000000000000e+00  6.8722339297276724e-01 -0.0000000000000000e+00 0.0000000000000000e+00  7.8539816339744828e-01 -0.0000000000000000e+00 0.0000000000000000e+00  8.8357293382212931e-01 -0.0000000000000000e+00 0.0000000000000000e+00  9.8174770424681035e-01 -0.0000000000000000e+00 0.0000000000000000e+00  1.0799224746714913e+00 -0.0000000000000000e+00 0.0000000000000000e+00  1.1780972450961724e+00 -0.0000000000000000e+00 0.0000000000000000e+00  1.2762720155208536e+00 -0.0000000000000000e+00 0.0000000000000000e+00  1.3744467859455345e+00 -0.0000000000000000e+00 0.0000000000000000e+00  1.4726215563702154e+00 -0.0000000000000000e+00 0.0000000000000000e+00  1.5707963267948966e+00 -0.0000000000000000e+00 0.0000000000000000e+00  1.6689710972195777e+00 -0.0000000000000000e+00 0.0000000000000000e+00  1.7671458676442586e+00 -0.0000000000000000e+00 0.0000000000000000e+00  1.8653206380689396e+00 -0.0000000000000000e+00 0.0000000000000000e+00  1.9634954084936207e+00 -0.0000000000000000e+00 0.0000000000000000e+00  2.0616701789183018e+00 -0.0000000000000000e+00 0.0000000000000000e+00  2.1598449493429825e+00 -0.0000000000000000e+00 0.0000000000000000e+00  2.2580197197676637e+00 -0.0000000000000000e+00 0.0000000000000000e+00  2.3561944901923448e+00 -0.0000000000000000e+00 0.0000000000000000e+00  2.4543692606170260e+00 -0.0000000000000000e+00 0.0000000000000000e+00  2.5525440310417071e+00 -0.0000000000000000e+00 0.0000000000000000e+00  2.6507188014663878e+00 -0.0000000000000000e+00 0.0000000000000000e+00  2.7488935718910690e+00 -0.0000000000000000e+00 0.0000000000000000e+00  2.8470683423157501e+00 -0.0000000000000000e+00 0.0000000000000000e+00  2.9452431127404308e+00 -0.0000000000000000e+00 0.0000000000000000e+00  3.0434178831651120e+00 -0.0000000000000000e+00 0.0000000000000000e+00  3.1415926535897931e+00 -0.0000000000000000e+00 0.0000000000000000e+00  0.0000000000000000e+00 -9.8174770424681035e-02 0.0000000000000000e+00  9.8174308395516607e-02 -9.8174308395516607e-02 0.0000000000000000e+00  1.9634584462474416e-01 -9.8172922312372082e-02 0.0000000000000000e+00  2.9451183656488156e-01 -9.8170612188293857e-02 0.0000000000000000e+00  3.9266951218010260e-01 -9.8167378045025649e-02 0.0000000000000000e+00  4.9081609956504235e-01 -9.8163219913008470e-02 0.0000000000000000e+00  5.8894882698828144e-01 -9.8158137831380235e-02 0.0000000000000000e+00  6.8706492293582799e-01 -9.8152131847975430e-02 0.0000000000000000e+00  7.8516161615459745e-01 -9.8145202019324682e-02 0.0000000000000000e+00  8.8323613569588733e-01 -9.8137348410654149e-02 0.0000000000000000e+00  9.8128571095884987e-01 -9.8128571095884978e-02 0.0000000000000000e+00  1.0793075717339589e+00 -9.8118870157632626e-02 0.0000000000000000e+00  1.1772989482464724e+00 -9.8108245687206025e-02 0.0000000000000000e+00  1.2752570711998872e+00 -9.8096697784606710e-02 0.0000000000000000e+00  1.3731791718193911e+00 -9.8084226558527943e-02 0.0000000000000000e+00  1.4710624818953049e+00 -9.8070832126353660e-02 0.0000000000000000e+00  1.5689042338265178e+00 -9.8056514614157361e-02 0.0000000000000000e+00  1.6667016606639158e+00 -9.8041274156700928e-02 0.0000000000000000e+00  1.7644519961537999e+00 -9.8025110897433321e-02 0.0000000000000000e+00  1.8621524747812972e+00 -9.8008024988489331e-02 0.0000000000000000e+00  1.9598003318137602e+00 -9.7990016590688012e-02 0.0000000000000000e+00  2.0573928033441571e+00 -9.7971085873531275e-02 0.0000000000000000e+00  2.1549271263344494e+00 -9.7951233015202255e-02 0.0000000000000000e+00  2.2524005386589621e+00 -9.7930458202563575e-02 0.0000000000000000e+00  2.3498102791477371e+00 -9.7908761631155722e-02 0.0000000000000000e+00  2.4471535876298769e+00 -9.7886143505195061e-02 0.0000000000000000e+00  2.5444277049768731e+00 -9.7862604037572035e-02 0.0000000000000000e+00  2.6416298731459245e+00 -9.7838143449849049e-02 0.0000000000000000e+00  2.7387573352232382e+00 -9.7812761972258494e-02 0.0000000000000000e+00  2.8358073354673148e+00 -9.7786459843700504e-02 0.0000000000000000e+00  2.9327771193522212e+00 -9.7759237311740715e-02 0.0000000000000000e+00  3.0296639336108466e+00 -9.7731094632607957e-02 0.0000000000000000e+00  3.1264650262781402e+00 -9.7702032071191880e-02 0.0000000000000000e+00  0.0000000000000000e+00 -1.9634954084936207e-01 0.0000000000000000e+00  9.8172922312372082e-02 -1.9634584462474416e-01 0.0000000000000000e+00  1.9633475609005130e-01 -1.9633475609005130e-01 0.0000000000000000e+00  2.9447441349414072e-01 -1.9631627566276047e-01 0.0000000000000000e+00  3.9258080807729873e-01 -1.9629040403864936e-01 0.0000000000000000e+00  4.9064285547942493e-01 -1.9625714219176996e-01 0.0000000000000000e+00  5.8864947412323620e-01 -1.9621649137441205e-01 0.0000000000000000e+00  6.8658958590969554e-01 -1.9616845311705589e-01 0.0000000000000000e+00  7.8445211691325889e-01 -1.9611302922831472e-01 0.0000000000000000e+00  8.8222599807689994e-01 -1.9605022179486664e-01 0.0000000000000000e+00  9.7990016590688012e-01 -1.9598003318137602e-01 0.0000000000000000e+00  1.0774635631672247e+00 -1.9590246603040451e-01 0.0000000000000000e+00  1.1749051395738686e+00 -1.9581752326231144e-01 0.0000000000000000e+00  1.2722138524884365e+00 -1.9572520807514407e-01 0.0000000000000000e+00  1.3693786676116191e+00 -1.9562552394451699e-01 0.0000000000000000e+00  1.4663885596761106e+00 -1.9551847462348143e-01 0.0000000000000000e+00  1.5632325131390701e+00 -1.9540406414238376e-01 0.0000000000000000e+00  1.6598995228740685e+00 -1.9528229680871392e-01 0.0000000000000000e+00  1.7563785948624897e+00 -1.9515317720694328e-01 0.0000000000000000e+00  1.8526587468843421e+00 -1.9501671019835182e-01 0.0000000000000000e+00  1.9487290092084526e+00 -1.9487290092084525e-01 0.0000000000000000e+00  2.0445784252819976e+00 -1.9472175478876166e-01 0.0000000000000000e+00  2.1401960524193413e+00 -1.9456327749266741e-01 0.0000000000000000e+00  2.2355709624901468e+00 -1.9439747499914320e-01 0.0000000000000000e+00  2.3306922426067103e+00 -1.9422435355055917e-01 0.0000000000000000e+00  2.4255489958104999e+00 -1.9404391966484000e-01 0.0000000000000000e+00  2.5201303417578540e+00 -1.9385618013521952e-01 0.0000000000000000e+00  2.6144254174047963e+00 -1.9366114202998491e-01 0.0000000000000000e+00  2.7084233776909481e+00 -1.9345881269221057e-01 0.0000000000000000e+00  2.8021133962224853e+00 -1.9324919973948174e-01 0.0000000000000000e+00  2.8954846659541138e+00 -1.9303231106360760e-01 0.0000000000000000e+00  2.9885263998700258e+00 -1.9280815483032424e-01 0.0000000000000000e+00  3.0812278316637940e+00 -1.9257673947898712e-01 0.0000000000000000e+00  0.0000000000000000e+00 -2.9452431127404310e-01 0.0000000000000000e+00  9.8170612188293857e-02 -2.9451183656488156e-01 0.0000000000000000e+00  1.9631627566276047e-01 -2.9447441349414072e-01 0.0000000000000000e+00  2.9441204523196246e-01 -2.9441204523196246e-01 0.0000000000000000e+00  3.9243298274882410e-01 -2.9432473706161810e-01 0.0000000000000000e+00  4.9035416063176829e-01 -2.9421249637906099e-01 0.0000000000000000e+00  5.8815066538459992e-01 -2.9407533269229996e-01 0.0000000000000000e+00  6.8579760111471899e-01 -2.9391325762059384e-01 0.0000000000000000e+00  7.8327009304924577e-01 -2.9372628489346714e-01 0.0000000000000000e+00  8.8054329104864149e-01 -2.9351443034954716e-01 0.0000000000000000e+00  9.7759237311740710e-01 -2.9327771193522212e-01 0.0000000000000000e+00  1.0743925489114436e+00 -2.9301614970312101e-01 0.0000000000000000e+00  1.1709190632416597e+00 -2.9272976581041493e-01 0.0000000000000000e+00  1.2671471995734069e+00 -2.9241858451694003e-01 0.0000000000000000e+00  1.3630522835213317e+00 -2.9208263218314245e-01 0.0000000000000000e+00  1.4586096863392277e+00 -2.9172193726784557e-01 0.0000000000000000e+00  1.5537948284044734e+00 -2.9133653032583878e-01 0.0000000000000000e+00  1.6485831826966404e+00 -2.9092644400528944e-01 0.0000000000000000e+00  1.7429502782698640e+00 -2.9049171304497734e-01 0.0000000000000000e+00  1.8368717037185602e+00 -2.9003237427135165e-01 0.0000000000000000e+00  1.9303231106360761e+00 -2.8954846659541139e-01 0.0000000000000000e+00  2.0232802170658672e+00 -2.8904003100940956e-01 0.0000000000000000e+00  2.1157188109447875e+00 -2.8850711058338013e-01 0.0000000000000000e+00  2.2076147535380897e+00 -2.8794975046148996e-01 0.0000000000000000e+00  2.2989439828657159e+00 -2.8736799785821449e-01 0.0000000000000000e+00  2.3896825171194824e+00 -2.8676190205433788e-01 0.0000000000000000e+00  2.4798064580707502e+00 -2.8613151439277884e-01 0.0000000000000000e+00  2.5692919944681702e+00 -2.8547688827424111e-01 0.0000000000000000e+00  2.6581154054251042e+00 -2.8479807915268973e-01 0.0000000000000000e+00  2.7462530637963192e+00 -2.8409514453065371e-01 0.0000000000000000e+00  2.8336814395435463e+00 -2.8336814395435467e-01 0.0000000000000000e+00  2.9203771030895167e+00 -2.8261713900866292e-01 0.0000000000000000e+00  3.0063167286600576e+00 -2.8184219331188037e-01 0.0000000000000000e+00  0.0000000000000000e+00 -3.9269908169872414e-01 0.0000000000000000e+00  9.8167378045025649e-02 -3.9266951218010260e-01 0.0000000000000000e+00  1.9629040403864936e-01 -3.9258080807729873e-01 0.0000000000000000e+00  2.9432473706161810e-01 -3.9243298274882410e-01 0.0000000000000000e+00  3.9222605845662945e-01 -3.9222605845662945e-01 0.0000000000000000e+00  4.8995008295344006e-01 -3.9196006636275205e-01 0.0000000000000000e+00  5.8745256978693428e-01 -3.9163504652462289e-01 0.0000000000000000e+00  6.8468933380580954e-01 -3.9125104788903398e-01 0.0000000000000000e+00  7.8161625656953504e-01 -3.9080812828476752e-01 0.0000000000000000e+00  8.7818929743124485e-01 -3.9030635441388656e-01 0.0000000000000000e+00  9.7436450460422630e-01 -3.8974580184169050e-01 0.0000000000000000e+00  1.0700980262096706e+00 -3.8912655498533483e-01 0.0000000000000000e+00  1.1653461213033551e+00 -3.8844870710111834e-01 0.0000000000000000e+00  1.2600651708789270e+00 -3.8771236027043904e-01 0.0000000000000000e+00  1.3542116888454740e+00 -3.8691762538442115e-01 0.0000000000000000e+00  1.4477423329770569e+00 -3.8606462212721521e-01 0.0000000000000000e+00  1.5406139158318970e+00 -3.8515347895797425e-01 0.0000000000000000e+00  1.6327834156389094e+00 -3.8418433309150807e-01 0.0000000000000000e+00  1.7242079871492868e+00 -3.8315733047761930e-01 0.0000000000000000e+00  1.8148449724508391e+00 -3.8207262577912404e-01 0.0000000000000000e+00  1.9046519117428000e+00 -3.8093038234855997e-01 0.0000000000000000e+00  1.9935865540688282e+00 -3.7973077220358631e-01 0.0000000000000000e+00  2.0816068680059310e+00 -3.7847397600107835e-01 0.0000000000000000e+00  2.1686710523070474e+00 -3.7716018300992132e-01 0.0000000000000000e+00  2.2547375464950430e+00 -3.7578959108250720e-01 0.0000000000000000e+00  2.3397650414058675e+00 -3.7436240662493880e-01 0.0000000000000000e+00  2.4237124896786479e+00 -3.7287884456594578e-01 0.0000000000000000e+00  2.5065391161904920e+00 -3.7133912832451732e-01 0.0000000000000000e+00  2.5882044284337917e+00 -3.6974348977625593e-01 0.0000000000000000e+00  2.6686682268338178e+00 -3.6809216921845761e-01 0.0000000000000000e+00  2.7478906150044331e+00 -3.6638541533392444e-01 0.0000000000000000e+00  2.8258320099397287e+00 -3.6462348515351339e-01 0.0000000000000000e+00  2.9024531521394308e+00 -3.6280664401742885e-01 0.0000000000000000e+00  0.0000000000000000e+00 -4.9087385212340517e-01 0.0000000000000000e+00  9.8163219913008470e-02 -4.9081609956504235e-01 0.0000000000000000e+00  1.9625714219176996e-01 -4.9064285547942493e-01 0.0000000000000000e+00  2.9421249637906099e-01 -4.9035416063176829e-01 0.0000000000000000e+00  3.9196006636275205e-01 -4.8995008295344006e-01 0.0000000000000000e+00  4.8943071752597533e-01 -4.8943071752597533e-01 0.0000000000000000e+00  5.8655542387044424e-01 -4.8879618655870355e-01 0.0000000000000000e+00  6.8326529510398892e-01 -4.8804663935999204e-01 0.0000000000000000e+00  7.7949160368338100e-01 -4.8718225230211315e-01 0.0000000000000000e+00  8.7516581180353670e-01 -4.8620322877974265e-01 0.0000000000000000e+00  9.7021959832420002e-01 -4.8510979916210001e-01 0.0000000000000000e+00  1.0645848856252316e+00 -4.8390222073874167e-01 0.0000000000000000e+00  1.1581938663816456e+00 -4.8258077765901902e-01 0.0000000000000000e+00  1.2509790302495645e+00 -4.8114578086521709e-01 0.0000000000000000e+00  1.3428731904542857e+00 -4.7959756801938774e-01 0.0000000000000000e+00  1.4338095102716892e+00 -4.7793650342389649e-01 0.0000000000000000e+00  1.5237215293942399e+00 -4.7616297793570000e-01 0.0000000000000000e+00  1.6125431901728777e+00 -4.7427740887437575e-01 0.0000000000000000e+00  1.7002088637261279e+00 -4.7228023992392443e-01 0.0000000000000000e+00  1.7866533759078014e+00 -4.7017194102836879e-01 0.0000000000000000e+00  1.8718120331246939e+00 -4.6795300828117348e-01 0.0000000000000000e+00  1.9556206479957496e+00 -4.6562396380851179e-01 0.0000000000000000e+00  2.0380155648441889e+00 -4.6318535564640667e-01 0.0000000000000000e+00  2.1189336850141647e+00 -4.6063775761177495e-01 0.0000000000000000e+00  2.1983124920035468e+00 -4.5798176916740557e-01 0.0000000000000000e+00  2.2760900764045129e+00 -4.5521801528090255e-01 0.0000000000000000e+00  2.3522051606436620e+00 -4.5234714627762723e-01 0.0000000000000000e+00  2.4265971235134369e+00 -4.4936983768767352e-01 0.0000000000000000e+00  2.4992060244867051e+00 -4.4628679008691163e-01 0.0000000000000000e+00  2.5699726278064099e+00 -4.4309872893213964e-01 0.0000000000000000e+00  2.6388384263422773e+00 -4.3980640439037955e-01 0.0000000000000000e+00  2.7057456652066265e+00 -4.3641059116235914e-01 0.0000000000000000e+00  2.7706373651214142e+00 -4.3291208830022099e-01 0.0000000000000000e+00  0.0000000000000000e+00 -5.8904862254808621e-01 0.0000000000000000e+00  9.8158137831380235e-02 -5.8894882698828144e-01 0.0000000000000000e+00  1.9621649137441205e-01 -5.8864947412323620e-01 0.0000000000000000e+00  2.9407533269229996e-01 -5.8815066538459992e-01 0.0000000000000000e+00  3.9163504652462289e-01 -5.8745256978693428e-01 0.0000000000000000e+00  4.8879618655870355e-01 -5.8655542387044424e-01 0.0000000000000000e+00  5.8545953162082986e-01 -5.8545953162082986e-01 0.0000000000000000e+00  6.8152614176066584e-01 -5.8416526436628491e-01 0.0000000000000000e+00  7.7689741420223668e-01 -5.8267306065167757e-01 0.0000000000000000e+00  8.7147513913493202e-01 -5.8098342608995468e-01 0.0000000000000000e+00  9.6516155531803804e-01 -5.7909693319082278e-01 0.0000000000000000e+00  1.0578594054723938e+00 -5.7701422116676027e-01 0.0000000000000000e+00  1.1494719914328579e+00 -5.7473599571642897e-01 0.0000000000000000e+00  1.2399032290353751e+00 -5.7226302878555768e-01 0.0000000000000000e+00  1.3290577027125521e+00 -5.6959615830537946e-01 0.0000000000000000e+00  1.4168407197717732e+00 -5.6673628790870934e-01 0.0000000000000000e+00  1.5031583643300288e+00 -5.6368438662376075e-01 0.0000000000000000e+00  1.5879175508797778e+00 -5.6044148854580389e-01 0.0000000000000000e+00  1.6710260774603281e+00 -5.5700869248677598e-01 0.0000000000000000e+00  1.7523926784093875e+00 -5.5338716160296453e-01 0.0000000000000000e+00  1.8319270766696223e+00 -5.4957812300088671e-01 0.0000000000000000e+00  1.9095400356252561e+00 -5.4558286732150174e-01 0.0000000000000000e+00  1.9851434104439465e+00 -5.4140274830289448e-01 0.0000000000000000e+00  2.0586501988993895e+00 -5.3703918232157988e-01 0.0000000000000000e+00  2.1299745916503299e+00 -5.3249364791258247e-01 0.0000000000000000e+00  2.1990320219518980e+00 -5.2776768526845552e-01 0.0000000000000000e+00  2.2657392147754316e+00 -5.2286289571740718e-01 0.0000000000000000e+00  2.3300142353132087e+00 -5.1778094118071305e-01 0.0000000000000000e+00  2.3917765368447785e+00 -5.1252354360959540e-01 0.0000000000000000e+00  2.4509470079418629e+00 -5.0709248440176469e-01 0.0000000000000000e+00  2.5074480189890820e+00 -5.0148960379781637e-01 0.0000000000000000e+00  2.5612034679980691e+00 -4.9571680025769077e-01 0.0000000000000000e+00  2.6121388256928295e+00 -4.8977602981740553e-01 0.0000000000000000e+00  0.0000000000000000e+00 -6.8722339297276724e-01 0.0000000000000000e+00  9.8152131847975430e-02 -6.8706492293582799e-01 0.0000000000000000e+00  1.9616845311705589e-01 -6.8658958590969554e-01 0.0000000000000000e+00  2.9391325762059384e-01 -6.8579760111471899e-01 0.0000000000000000e+00  3.9125104788903398e-01 -6.8468933380580954e-01 0.0000000000000000e+00  4.8804663935999204e-01 -6.8326529510398892e-01 0.0000000000000000e+00  5.8416526436628491e-01 -6.8152614176066584e-01 0.0000000000000000e+00  6.7947267585474891e-01 -6.7947267585474891e-01 0.0000000000000000e+00  7.7383525076884230e-01 -6.7710584442273702e-01 0.0000000000000000e+00  8.6712009302822868e-01 -6.7442673902195571e-01 0.0000000000000000e+00  9.5919513603877549e-01 -6.7143659522714283e-01 0.0000000000000000e+00  1.0499292446666801e+00 -6.6813679206061471e-01 0.0000000000000000e+00  1.1391923166107589e+00 -6.6452885135627604e-01 0.0000000000000000e+00  1.2268553831072795e+00 -6.6061443705776579e-01 0.0000000000000000e+00  1.3127907089021296e+00 -6.5639535445106478e-01 0.0000000000000000e+00  1.3968718914255351e+00 -6.5187354933191644e-01 0.0000000000000000e+00  1.4789739591050237e+00 -6.4705110710844793e-01 0.0000000000000000e+00  1.5589734687528296e+00 -6.4193025183940033e-01 0.0000000000000000e+00  1.6367486019645052e+00 -6.3651334520841862e-01 0.0000000000000000e+00  1.7121792604660666e+00 -6.3080288543486673e-01 0.0000000000000000e+00  1.7851471603476465e+00 -6.2480150612167629e-01 0.0000000000000000e+00  1.8555359251222723e+00 -6.1851197504075739e-01 0.0000000000000000e+00  1.9232311775490976e+00 -6.1193719285653114e-01 0.0000000000000000e+00  1.9881206301611458e+00 -6.0508019178817485e-01 0.0000000000000000e+00  2.0500941744383816e+00 -5.9794413421119463e-01 0.0000000000000000e+00  2.1090439685677564e+00 -5.9053231119897187e-01 0.0000000000000000e+00  2.1648645237326907e+00 -5.8284814100495519e-01 0.0000000000000000e+00  2.2174527888753386e+00 -5.7489516748619884e-01 0.0000000000000000e+00  2.2667082338758942e+00 -5.6667705846897354e-01 0.0000000000000000e+00  2.3125329310941320e+00 -5.5819760405720431e-01 0.0000000000000000e+00  2.3548316352193499e+00 -5.4946071488451509e-01 0.0000000000000000e+00  2.3935118613758957e+00 -5.4047042031068615e-01 0.0000000000000000e+00  2.4284839614324900e+00 -5.3123086656335716e-01 0.0000000000000000e+00  0.0000000000000000e+00 -7.8539816339744828e-01 0.0000000000000000e+00  9.8145202019324682e-02 -7.8516161615459745e-01 0.0000000000000000e+00  1.9611302922831472e-01 -7.8445211691325889e-01 0.0000000000000000e+00  2.9372628489346714e-01 -7.8327009304924577e-01 0.0000000000000000e+00  3.9080812828476752e-01 -7.8161625656953504e-01 0.0000000000000000e+00  4.8718225230211315e-01 -7.7949160368338100e-01 0.0000000000000000e+00  5.8267306065167757e-01 -7.7689741420223668e-01 0.0000000000000000e+00  6.7710584442273702e-01 -7.7383525076884230e-01 0.0000000000000000e+00  7.7030695791594850e-01 -7.7030695791594850e-01 0.0000000000000000e+00  8.6210399357464340e-01 -7.6631466095523859e-01 0.0000000000000000e+00  9.5232595587140001e-01 -7.6186076469711994e-01 0.0000000000000000e+00  1.0408034340029655e+00 -7.5694795200215670e-01 0.0000000000000000e+00  1.1273687732475215e+00 -7.5157918216501440e-01 0.0000000000000000e+00  1.2118562448393240e+00 -7.4575768913189155e-01 0.0000000000000000e+00  1.2941022142168959e+00 -7.3948697955251186e-01 0.0000000000000000e+00  1.3739453075022166e+00 -7.3277083066784887e-01 0.0000000000000000e+00  1.45122657