<?xml version="1.0"?>
<VTKFile type="UnstructuredGrid"  version="0.1"  >
<UnstructuredGrid>
<Piece  NumberOfPoints="1089" NumberOfCells="2048">
<Points>
<DataArray  type="Float64"  NumberOfComponents="3"  format="ascii">0 0 0  0.03125 0 0  0.0625 0 0  0.09375 0 0  0.125 0 0  0.15625 0 0  0.1875 0 0  0.21875 0 0  0.25 0 0  0.28125 0 0  0.3125 0 0  0.34375 0 0  0.375 0 0  0.40625 0 0  0.4375 0 0  0.46875 0 0  0.5 0 0  0.53125 0 0  0.5625 0 0  0.59375 0 0  0.625 0 0  0.65625 0 0  0.6875 0 0  0.71875 0 0  0.75 0 0  0.78125 0 0  0.8125 0 0  0.84375 0 0  0.875 0 0  0.90625 0 0  0.9375 0 0  0.96875 0 0  1 0 0  0 0.03125 0  0.03125 0.03125 0  0.0625 0.03125 0  0.09375 0.03125 0  0.125 0.03125 0  0.15625 0.03125 0  0.1875 0.03125 0  0.21875 0.03125 0  0.25 0.03125 0  0.28125 0.03125 0  0.3125 0.03125 0  0.34375 0.03125 0  0.375 0.03125 0  0.40625 0.03125 0  0.4375 0.03125 0  0.46875 0.03125 0  0.5 0.03125 0  0.53125 0.03125 0  0.5625 0.03125 0  0.59375 0.03125 0  0.625 0.03125 0  0.65625 0.03125 0  0.6875 0.03125 0  0.71875 0.03125 0  0.75 0.03125 0  0.78125 0.03125 0  0.8125 0.03125 0  0.84375 0.03125 0  0.875 0.03125 0  0.90625 0.03125 0  0.9375 0.03125 0  0.96875 0.03125 0  1 0.03125 0  0 0.0625 0  0.03125 0.0625 0  0.0625 0.0625 0  0.09375 0.0625 0  0.125 0.0625 0  0.15625 0.0625 0  0.1875 0.0625 0  0.21875 0.0625 0  0.25 0.0625 0  0.28125 0.0625 0  0.3125 0.0625 0  0.34375 0.0625 0  0.375 0.0625 0  0.40625 0.0625 0  0.4375 0.0625 0  0.46875 0.0625 0  0.5 0.0625 0  0.53125 0.0625 0  0.5625 0.0625 0  0.59375 0.0625 0  0.625 0.0625 0  0.65625 0.0625 0  0.6875 0.0625 0  0.71875 0.0625 0  0.75 0.0625 0  0.78125 0.0625 0  0.8125 0.0625 0  0.84375 0.0625 0  0.875 0.0625 0  0.90625 0.0625 0  0.9375 0.0625 0  0.96875 0.0625 0  1 0.0625 0  0 0.09375 0  0.03125 0.09375 0  0.0625 0.09375 0  0.09375 0.09375 0  0.125 0.09375 0  0.15625 0.09375 0  0.1875 0.09375 0  0.21875 0.09375 0  0.25 0.09375 0  0.28125 0.09375 0  0.3125 0.09375 0  0.34375 0.09375 0  0.375 0.09375 0  0.40625 0.09375 0  0.4375 0.09375 0  0.46875 0.09375 0  0.5 0.09375 0  0.53125 0.09375 0  0.5625 0.09375 0  0.59375 0.09375 0  0.625 0.09375 0  0.65625 0.09375 0  0.6875 0.09375 0  0.71875 0.09375 0  0.75 0.09375 0  0.78125 0.09375 0  0.8125 0.09375 0  0.84375 0.09375 0  0.875 0.09375 0  0.90625 0.09375 0  0.9375 0.09375 0  0.96875 0.09375 0  1 0.09375 0  0 0.125 0  0.03125 0.125 0  0.0625 0.125 0  0.09375 0.125 0  0.125 0.125 0  0.15625 0.125 0  0.1875 0.125 0  0.21875 0.125 0  0.25 0.125 0  0.28125 0.125 0  0.3125 0.125 0  0.34375 0.125 0  0.375 0.125 0  0.40625 0.125 0  0.4375 0.125 0  0.46875 0.125 0  0.5 0.125 0  0.53125 0.125 0  0.5625 0.125 0  0.59375 0.125 0  0.625 0.125 0  0.65625 0.125 0  0.6875 0.125 0  0.71875 0.125 0  0.75 0.125 0  0.78125 0.125 0  0.8125 0.125 0  0.84375 0.125 0  0.875 0.125 0  0.90625 0.125 0  0.9375 0.125 0  0.96875 0.125 0  1 0.125 0  0 0.15625 0  0.03125 0.15625 0  0.0625 0.15625 0  0.09375 0.15625 0  0.125 0.15625 0  0.15625 0.15625 0  0.1875 0.15625 0  0.21875 0.15625 0  0.25 0.15625 0  0.28125 0.15625 0  0.3125 0.15625 0  0.34375 0.15625 0  0.375 0.15625 0  0.40625 0.15625 0  0.4375 0.15625 0  0.46875 0.15625 0  0.5 0.15625 0  0.53125 0.15625 0  0.5625 0.15625 0  0.59375 0.15625 0  0.625 0.15625 0  0.65625 0.15625 0  0.6875 0.15625 0  0.71875 0.15625 0  0.75 0.15625 0  0.78125 0.15625 0  0.8125 0.15625 0  0.84375 0.15625 0  0.875 0.15625 0  0.90625 0.15625 0  0.9375 0.15625 0  0.96875 0.15625 0  1 0.15625 0  0 0.1875 0  0.03125 0.1875 0  0.0625 0.1875 0  0.09375 0.1875 0  0.125 0.1875 0  0.15625 0.1875 0  0.1875 0.1875 0  0.21875 0.1875 0  0.25 0.1875 0  0.28125 0.1875 0  0.3125 0.1875 0  0.34375 0.1875 0  0.375 0.1875 0  0.40625 0.1875 0  0.4375 0.1875 0  0.46875 0.1875 0  0.5 0.1875 0  0.53125 0.1875 0  0.5625 0.1875 0  0.59375 0.1875 0  0.625 0.1875 0  0.65625 0.1875 0  0.6875 0.1875 0  0.71875 0.1875 0  0.75 0.1875 0  0.78125 0.1875 0  0.8125 0.1875 0  0.84375 0.1875 0  0.875 0.1875 0  0.90625 0.1875 0  0.9375 0.1875 0  0.96875 0.1875 0  1 0.1875 0  0 0.21875 0  0.03125 0.21875 0  0.0625 0.21875 0  0.09375 0.21875 0  0.125 0.21875 0  0.15625 0.21875 0  0.1875 0.21875 0  0.21875 0.21875 0  0.25 0.21875 0  0.28125 0.21875 0  0.3125 0.21875 0  0.34375 0.21875 0  0.375 0.21875 0  0.40625 0.21875 0  0.4375 0.21875 0  0.46875 0.21875 0  0.5 0.21875 0  0.53125 0.21875 0  0.5625 0.21875 0  0.59375 0.21875 0  0.625 0.21875 0  0.65625 0.21875 0  0.6875 0.21875 0  0.71875 0.21875 0  0.75 0.21875 0  0.78125 0.21875 0  0.8125 0.21875 0  0.84375 0.21875 0  0.875 0.21875 0  0.90625 0.21875 0  0.9375 0.21875 0  0.96875 0.21875 0  1 0.21875 0  0 0.25 0  0.03125 0.25 0  0.0625 0.25 0  0.09375 0.25 0  0.125 0.25 0  0.15625 0.25 0  0.1875 0.25 0  0.21875 0.25 0  0.25 0.25 0  0.28125 0.25 0  0.3125 0.25 0  0.34375 0.25 0  0.375 0.25 0  0.40625 0.25 0  0.4375 0.25 0  0.46875 0.25 0  0.5 0.25 0  0.53125 0.25 0  0.5625 0.25 0  0.59375 0.25 0  0.625 0.25 0  0.65625 0.25 0  0.6875 0.25 0  0.71875 0.25 0  0.75 0.25 0  0.78125 0.25 0  0.8125 0.25 0  0.84375 0.25 0  0.875 0.25 0  0.90625 0.25 0  0.9375 0.25 0  0.96875 0.25 0  1 0.25 0  0 0.28125 0  0.03125 0.28125 0  0.0625 0.28125 0  0.09375 0.28125 0  0.125 0.28125 0  0.15625 0.28125 0  0.1875 0.28125 0  0.21875 0.28125 0  0.25 0.28125 0  0.28125 0.28125 0  0.3125 0.28125 0  0.34375 0.28125 0  0.375 0.28125 0  0.40625 0.28125 0  0.4375 0.28125 0  0.46875 0.28125 0  0.5 0.28125 0  0.53125 0.28125 0  0.5625 0.28125 0  0.59375 0.28125 0  0.625 0.28125 0  0.65625 0.28125 0  0.6875 0.28125 0  0.71875 0.28125 0  0.75 0.28125 0  0.78125 0.28125 0  0.8125 0.28125 0  0.84375 0.28125 0  0.875 0.28125 0  0.90625 0.28125 0  0.9375 0.28125 0  0.96875 0.28125 0  1 0.28125 0  0 0.3125 0  0.03125 0.3125 0  0.0625 0.3125 0  0.09375 0.3125 0  0.125 0.3125 0  0.15625 0.3125 0  0.1875 0.3125 0  0.21875 0.3125 0  0.25 0.3125 0  0.28125 0.3125 0  0.3125 0.3125 0  0.34375 0.3125 0  0.375 0.3125 0  0.40625 0.3125 0  0.4375 0.3125 0  0.46875 0.3125 0  0.5 0.3125 0  0.53125 0.3125 0  0.5625 0.3125 0  0.59375 0.3125 0  0.625 0.3125 0  0.65625 0.3125 0  0.6875 0.3125 0  0.71875 0.3125 0  0.75 0.3125 0  0.78125 0.3125 0  0.8125 0.3125 0  0.84375 0.3125 0  0.875 0.3125 0  0.90625 0.3125 0  0.9375 0.3125 0  0.96875 0.3125 0  1 0.3125 0  0 0.34375 0  0.03125 0.34375 0  0.0625 0.34375 0  0.09375 0.34375 0  0.125 0.34375 0  0.15625 0.34375 0  0.1875 0.34375 0  0.21875 0.34375 0  0.25 0.34375 0  0.28125 0.34375 0  0.3125 0.34375 0  0.34375 0.34375 0  0.375 0.34375 0  0.40625 0.34375 0  0.4375 0.34375 0  0.46875 0.34375 0  0.5 0.34375 0  0.53125 0.34375 0  0.5625 0.34375 0  0.59375 0.34375 0  0.625 0.34375 0  0.65625 0.34375 0  0.6875 0.34375 0  0.71875 0.34375 0  0.75 0.34375 0  0.78125 0.34375 0  0.8125 0.34375 0  0.84375 0.34375 0  0.875 0.34375 0  0.90625 0.34375 0  0.9375 0.34375 0  0.96875 0.34375 0  1 0.34375 0  0 0.375 0  0.03125 0.375 0  0.0625 0.375 0  0.09375 0.375 0  0.125 0.375 0  0.15625 0.375 0  0.1875 0.375 0  0.21875 0.375 0  0.25 0.375 0  0.28125 0.375 0  0.3125 0.375 0  0.34375 0.375 0  0.375 0.375 0  0.40625 0.375 0  0.4375 0.375 0  0.46875 0.375 0  0.5 0.375 0  0.53125 0.375 0  0.5625 0.375 0  0.59375 0.375 0  0.625 0.375 0  0.65625 0.375 0  0.6875 0.375 0  0.71875 0.375 0  0.75 0.375 0  0.78125 0.375 0  0.8125 0.375 0  0.84375 0.375 0  0.875 0.375 0  0.90625 0.375 0  0.9375 0.375 0  0.96875 0.375 0  1 0.375 0  0 0.40625 0  0.03125 0.40625 0  0.0625 0.40625 0  0.09375 0.40625 0  0.125 0.40625 0  0.15625 0.40625 0  0.1875 0.40625 0  0.21875 0.40625 0  0.25 0.40625 0  0.28125 0.40625 0  0.3125 0.40625 0  0.34375 0.40625 0  0.375 0.40625 0  0.40625 0.40625 0  0.4375 0.40625 0  0.46875 0.40625 0  0.5 0.40625 0  0.53125 0.40625 0  0.5625 0.40625 0  0.59375 0.40625 0  0.625 0.40625 0  0.65625 0.40625 0  0.6875 0.40625 0  0.71875 0.40625 0  0.75 0.40625 0  0.78125 0.40625 0  0.8125 0.40625 0  0.84375 0.40625 0  0.875 0.40625 0  0.90625 0.40625 0  0.9375 0.40625 0  0.96875 0.40625 0  1 0.40625 0  0 0.4375 0  0.03125 0.4375 0  0.0625 0.4375 0  0.09375 0.4375 0  0.125 0.4375 0  0.15625 0.4375 0  0.1875 0.4375 0  0.21875 0.4375 0  0.25 0.4375 0  0.28125 0.4375 0  0.3125 0.4375 0  0.34375 0.4375 0  0.375 0.4375 0  0.40625 0.4375 0  0.4375 0.4375 0  0.46875 0.4375 0  0.5 0.4375 0  0.53125 0.4375 0  0.5625 0.4375 0  0.59375 0.4375 0  0.625 0.4375 0  0.65625 0.4375 0  0.6875 0.4375 0  0.71875 0.4375 0  0.75 0.4375 0  0.78125 0.4375 0  0.8125 0.4375 0  0.84375 0.4375 0  0.875 0.4375 0  0.90625 0.4375 0  0.9375 0.4375 0  0.96875 0.4375 0  1 0.4375 0  0 0.46875 0  0.03125 0.46875 0  0.0625 0.46875 0  0.09375 0.46875 0  0.125 0.46875 0  0.15625 0.46875 0  0.1875 0.46875 0  0.21875 0.46875 0  0.25 0.46875 0  0.28125 0.46875 0  0.3125 0.46875 0  0.34375 0.46875 0  0.375 0.46875 0  0.40625 0.46875 0  0.4375 0.46875 0  0.46875 0.46875 0  0.5 0.46875 0  0.53125 0.46875 0  0.5625 0.46875 0  0.59375 0.46875 0  0.625 0.46875 0  0.65625 0.46875 0  0.6875 0.46875 0  0.71875 0.46875 0  0.75 0.46875 0  0.78125 0.46875 0  0.8125 0.46875 0  0.84375 0.46875 0  0.875 0.46875 0  0.90625 0.46875 0  0.9375 0.46875 0  0.96875 0.46875 0  1 0.46875 0  0 0.5 0  0.03125 0.5 0  0.0625 0.5 0  0.09375 0.5 0  0.125 0.5 0  0.15625 0.5 0  0.1875 0.5 0  0.21875 0.5 0  0.25 0.5 0  0.28125 0.5 0  0.3125 0.5 0  0.34375 0.5 0  0.375 0.5 0  0.40625 0.5 0  0.4375 0.5 0  0.46875 0.5 0  0.5 0.5 0  0.53125 0.5 0  0.5625 0.5 0  0.59375 0.5 0  0.625 0.5 0  0.65625 0.5 0  0.6875 0.5 0  0.71875 0.5 0  0.75 0.5 0  0.78125 0.5 0  0.8125 0.5 0  0.84375 0.5 0  0.875 0.5 0  0.90625 0.5 0  0.9375 0.5 0  0.96875 0.5 0  1 0.5 0  0 0.53125 0  0.03125 0.53125 0  0.0625 0.53125 0  0.09375 0.53125 0  0.125 0.53125 0  0.15625 0.53125 0  0.1875 0.53125 0  0.21875 0.53125 0  0.25 0.53125 0  0.28125 0.53125 0  0.3125 0.53125 0  0.34375 0.53125 0  0.375 0.53125 0  0.40625 0.53125 0  0.4375 0.53125 0  0.46875 0.53125 0  0.5 0.53125 0  0.53125 0.53125 0  0.5625 0.53125 0  0.59375 0.53125 0  0.625 0.53125 0  0.65625 0.53125 0  0.6875 0.53125 0  0.71875 0.53125 0  0.75 0.53125 0  0.78125 0.531
[...]
<PointData  Vectors="f_493-0"> 
<DataArray  type="Float64"  Name="f_493-0"  NumberOfComponents="3" format="ascii">0.0000000000000000e+00 -0.0000000000000000e+00 0.0000000000000000e+00  9.8174770424681021e-02 -0.0000000000000000e+00 0.0000000000000000e+00  1.9634954084936204e-01 -0.0000000000000000e+00 0.0000000000000000e+00  2.9452431127404310e-01 -0.0000000000000000e+00 0.0000000000000000e+00  3.9269908169872408e-01 -0.0000000000000000e+00 0.0000000000000000e+00  4.9087385212340517e-01 -0.0000000000000000e+00 0.0000000000000000e+00  5.8904862254808621e-01 -0.0000000000000000e+00 0.0000000000000000e+00  6.8722339297276724e-01 -0.0000000000000000e+00 0.0000000000000000e+00  7.8539816339744817e-01 -0.0000000000000000e+00 0.0000000000000000e+00  8.8357293382212931e-01 -0.0000000000000000e+00 0.0000000000000000e+00  9.8174770424681035e-01 -0.0000000000000000e+00 0.0000000000000000e+00  1.0799224746714913e+00 -0.0000000000000000e+00 0.0000000000000000e+00  1.1780972450961724e+00 -0.0000000000000000e+00 0.0000000000000000e+00  1.2762720155208536e+00 -0.0000000000000000e+00 0.0000000000000000e+00  1.3744467859455345e+00 -0.0000000000000000e+00 0.0000000000000000e+00  1.4726215563702154e+00 -0.0000000000000000e+00 0.0000000000000000e+00  1.5707963267948963e+00 -0.0000000000000000e+00 0.0000000000000000e+00  1.6689710972195777e+00 -0.0000000000000000e+00 0.0000000000000000e+00  1.7671458676442586e+00 -0.0000000000000000e+00 0.0000000000000000e+00  1.8653206380689396e+00 -0.0000000000000000e+00 0.0000000000000000e+00  1.9634954084936207e+00 -0.0000000000000000e+00 0.0000000000000000e+00  2.0616701789183018e+00 -0.0000000000000000e+00 0.0000000000000000e+00  2.1598449493429825e+00 -0.0000000000000000e+00 0.0000000000000000e+00  2.2580197197676637e+00 -0.0000000000000000e+00 0.0000000000000000e+00  2.3561944901923448e+00 -0.0000000000000000e+00 0.0000000000000000e+00  2.4543692606170260e+00 -0.0000000000000000e+00 0.0000000000000000e+00  2.5525440310417071e+00 -0.0000000000000000e+00 0.0000000000000000e+00  2.6507188014663878e+00 -0.0000000000000000e+00 0.0000000000000000e+00  2.7488935718910690e+00 -0.0000000000000000e+00 0.0000000000000000e+00  2.8470683423157501e+00 -0.0000000000000000e+00 0.0000000000000000e+00  2.9452431127404308e+00 -0.0000000000000000e+00 0.0000000000000000e+00  3.0434178831651120e+00 -0.0000000000000000e+00 0.0000000000000000e+00  3.1415926535897931e+00 -0.0000000000000000e+00 0.0000000000000000e+00  0.0000000000000000e+00 -9.8174770424681035e-02 0.0000000000000000e+00  9.8174257994539202e-02 -9.8174257994539285e-02 0.0000000000000000e+00  1.9634575539485991e-01 -9.8172861111897713e-02 0.0000000000000000e+00  2.9451170717591418e-01 -9.8170541412785653e-02 0.0000000000000000e+00  3.9266934292892841e-01 -9.8167297704888523e-02 0.0000000000000000e+00  4.9081589050173563e-01 -9.8163130097701792e-02 0.0000000000000000e+00  5.8894857841856441e-01 -9.8158038622590552e-02 0.0000000000000000e+00  6.8706463530028306e-01 -9.8152023290994275e-02 0.0000000000000000e+00  7.8516128998779333e-01 -9.8145084133319446e-02 0.0000000000000000e+00  8.8323577159091649e-01 -9.8137221184009277e-02 0.0000000000000000e+00  9.8128530952230264e-01 -9.8128434482998642e-02 0.0000000000000000e+00  1.0793071335367739e+00 -9.8118724074968397e-02 0.0000000000000000e+00  1.1772984737677930e+00 -9.8108090008632035e-02 0.0000000000000000e+00  1.2752565607626349e+00 -9.8096532336095943e-02 0.0000000000000000e+00  1.3731786255158172e+00 -9.8084051111853629e-02 0.0000000000000000e+00  1.4710618994997169e+00 -9.8070646391122784e-02 0.0000000000000000e+00  1.5689036146906967e+00 -9.8056318226978745e-02 0.0000000000000000e+00  1.6667010035876850e+00 -9.8041066665471008e-02 0.0000000000000000e+00  1.7644512992181527e+00 -9.8024891737295630e-02 0.0000000000000000e+00  1.8621517351229919e+00 -9.8007793443433133e-02 0.0000000000000000e+00  1.9597995453051000e+00 -9.7989771729884989e-02 0.0000000000000000e+00  2.0573919641157556e+00 -9.7970826441519082e-02 0.0000000000000000e+00  2.1549262260081958e+00 -9.7950957238230996e-02 0.0000000000000000e+00  2.2523995651705961e+00 -9.7930163406281412e-02 0.0000000000000000e+00  2.3498092143772991e+00 -9.7908443548059540e-02 0.0000000000000000e+00  2.4471524032680914e+00 -9.7885794724372172e-02 0.0000000000000000e+00  2.5444263586692144e+00 -9.7862209635870681e-02 0.0000000000000000e+00  2.6416282714714820e+00 -9.7837676057721687e-02 0.0000000000000000e+00  2.7387553306729564e+00 -9.7812148233907145e-02 0.0000000000000000e+00  2.8358048755015539e+00 -9.7785472255263906e-02 0.0000000000000000e+00  2.9327719108041794e+00 -9.7757655106980021e-02 0.0000000000000000e+00  3.0296595921380871e+00 -9.7727852640419638e-02 0.0000000000000000e+00  3.1264650262781402e+00 -9.7702032071191880e-02 0.0000000000000000e+00  0.0000000000000000e+00 -1.9634954084936207e-01 0.0000000000000000e+00  9.8172861111897519e-02 -1.9634575539485993e-01 0.0000000000000000e+00  1.9633465347658710e-01 -1.9633465347658721e-01 0.0000000000000000e+00  2.9447427057389070e-01 -1.9631616054497542e-01 0.0000000000000000e+00  3.9258062466317956e-01 -1.9629027675001309e-01 0.0000000000000000e+00  4.9064263176194384e-01 -1.9625700311112754e-01 0.0000000000000000e+00  5.8864921069576748e-01 -1.9621634074947625e-01 0.0000000000000000e+00  6.8658928356476301e-01 -1.9616829110091966e-01 0.0000000000000000e+00  7.8445177661209986e-01 -1.9611285587413538e-01 0.0000000000000000e+00  8.8222562086733192e-01 -1.9605003704527171e-01 0.0000000000000000e+00  9.7989975283854880e-01 -1.9597983685686066e-01 0.0000000000000000e+00  1.0774631151960479e+00 -1.9590225781460649e-01 0.0000000000000000e+00  1.1749046574530537e+00 -1.9581730268525765e-01 0.0000000000000000e+00  1.2722133366447383e+00 -1.9572497449410262e-01 0.0000000000000000e+00  1.3693781180042164e+00 -1.9562527652126196e-01 0.0000000000000000e+00  1.4663879756341041e+00 -1.9551821229562447e-01 0.0000000000000000e+00  1.5632318931710161e+00 -1.9540378558468668e-01 0.0000000000000000e+00  1.6598988644386607e+00 -1.9528200037756466e-01 0.0000000000000000e+00  1.7563778940824131e+00 -1.9515286085662534e-01 0.0000000000000000e+00  1.8526579981745748e+00 -1.9501637134968622e-01 0.0000000000000000e+00  1.9487282047700871e+00 -1.9487253624815778e-01 0.0000000000000000e+00  2.0445775543854747e+00 -1.9472135986356481e-01 0.0000000000000000e+00  2.1401951003386901e+00 -1.9456284616657918e-01 0.0000000000000000e+00  2.2355699088915348e+00 -1.9439699830203033e-01 0.0000000000000000e+00  2.3306910588722163e+00 -1.9422381764798385e-01 0.0000000000000000e+00  2.4255476416081811e+00 -1.9404330178011356e-01 0.0000000000000000e+00  2.5201287565188215e+00 -1.9385544091644530e-01 0.0000000000000000e+00  2.6144235151774886e+00 -1.9366020860862920e-01 0.0000000000000000e+00  2.7084210616975035e+00 -1.9345754025214915e-01 0.0000000000000000e+00  2.8021104295544057e+00 -1.9324734731506613e-01 0.0000000000000000e+00  2.8954814872349939e+00 -1.9302951291426282e-01 0.0000000000000000e+00  2.9885241326945478e+00 -1.9280338231293531e-01 0.0000000000000000e+00  3.0812278316637940e+00 -1.9257673947898712e-01 0.0000000000000000e+00  0.0000000000000000e+00 -2.9452431127404310e-01 0.0000000000000000e+00  9.8170541412785417e-02 -2.9451170717591418e-01 0.0000000000000000e+00  1.9631616054497505e-01 -2.9447427057389114e-01 0.0000000000000000e+00  2.9441189017079228e-01 -2.9441189017079250e-01 0.0000000000000000e+00  3.9243278697971379e-01 -2.9432457065996814e-01 0.0000000000000000e+00  4.9035392476304424e-01 -2.9421231935801856e-01 0.0000000000000000e+00  5.8815039030258887e-01 -2.9407514554875575e-01 0.0000000000000000e+00  6.8579728801065887e-01 -2.9391306067384182e-01 0.0000000000000000e+00  7.8326974334944766e-01 -2.9372607825742342e-01 0.0000000000000000e+00  8.8054290630576681e-01 -2.9351421391449289e-01 0.0000000000000000e+00  9.7759195490059181e-01 -2.9327748534149756e-01 0.0000000000000000e+00  1.0743920986769704e+00 -2.9301591231066665e-01 0.0000000000000000e+00  1.1709185821868828e+00 -2.9272951666508501e-01 0.0000000000000000e+00  1.2671466884725506e+00 -2.9241832231279402e-01 0.0000000000000000e+00  1.3630517425415472e+00 -2.9208235521862513e-01 0.0000000000000000e+00  1.4586091148340834e+00 -2.9172164339162077e-01 0.0000000000000000e+00  1.5537942246798708e+00 -2.9133621686512151e-01 0.0000000000000000e+00  1.6485825437408919e+00 -2.9092610766504784e-01 0.0000000000000000e+00  1.7429495994348496e+00 -2.9049134975920782e-01 0.0000000000000000e+00  1.8368709783327275e+00 -2.9003197897564054e-01 0.0000000000000000e+00  1.9303223295199436e+00 -2.8954803286954678e-01 0.0000000000000000e+00  2.0232793679176742e+00 -2.8903955050275348e-01 0.0000000000000000e+00  2.1157178775391179e+00 -2.8850657207333175e-01 0.0000000000000000e+00  2.2076137147662465e+00 -2.8794913828383167e-01 0.0000000000000000e+00  2.2989428115691988e+00 -2.8736728925698218e-01 0.0000000000000000e+00  2.3896811795869999e+00 -2.8676106274581875e-01 0.0000000000000000e+00  2.4798049142734349e+00 -2.8613049143739855e-01 0.0000000000000000e+00  2.5692902115947853e+00 -2.8547559924800631e-01 0.0000000000000000e+00  2.6581133647000930e+00 -2.8479640774250847e-01 0.0000000000000000e+00  2.7462509113407370e+00 -2.8409296855445604e-01 0.0000000000000000e+00  2.8336795091925868e+00 -2.8336542463753855e-01 0.0000000000000000e+00  2.9203759398675571e+00 -2.8261504261245440e-01 0.0000000000000000e+00  3.0063167286600576e+00 -2.8184219331188037e-01 0.0000000000000000e+00  0.0000000000000000e+00 -3.9269908169872414e-01 0.0000000000000000e+00  9.8167297704888551e-02 -3.9266934292892847e-01 0.0000000000000000e+00  1.9629027675001287e-01 -3.9258062466317972e-01 0.0000000000000000e+00  2.9432457065996787e-01 -3.9243278697971423e-01 0.0000000000000000e+00  3.9222585154474265e-01 -3.9222585154474260e-01 0.0000000000000000e+00  4.8994983670158365e-01 -3.9195984941819034e-01 0.0000000000000000e+00  5.8745228542610695e-01 -3.9163482036293262e-01 0.0000000000000000e+00  6.8468901302287577e-01 -3.9125081304516524e-01 0.0000000000000000e+00  7.8161590134721093e-01 -3.9080788496983559e-01 0.0000000000000000e+00  8.7818890994486154e-01 -3.9030610247990150e-01 0.0000000000000000e+00  9.7436408709396150e-01 -3.8974554073503770e-01 0.0000000000000000e+00  1.0700975808303961e+00 -3.8912628369728514e-01 0.0000000000000000e+00  1.1653456499564281e+00 -3.8844842411496461e-01 0.0000000000000000e+00  1.2600646750257662e+00 -3.8771206350471521e-01 0.0000000000000000e+00  1.3542111693041834e+00 -3.8691731212948571e-01 0.0000000000000000e+00  1.4477417897026732e+00 -3.8606428896986839e-01 0.0000000000000000e+00  1.5406133476802419e+00 -3.8515312168529486e-01 0.0000000000000000e+00  1.6327828201135819e+00 -3.8418394656018573e-01 0.0000000000000000e+00  1.7242073601315548e+00 -3.8315690842773797e-01 0.0000000000000000e+00  1.8148443079151966e+00 -3.8207216056025861e-01 0.0000000000000000e+00  1.9046512014675792e+00 -3.8092986450924882e-01 0.0000000000000000e+00  1.9935857873792140e+00 -3.7973018987061041e-01 0.0000000000000000e+00  2.0816060316164560e+00 -3.7847331394280903e-01 0.0000000000000000e+00  2.1686701305339047e+00 -3.7715942124443069e-01 0.0000000000000000e+00  2.2547365220999227e+00 -3.7578870291203559e-01 0.0000000000000000e+00  2.3397638988831573e+00 -3.7436135616800409e-01 0.0000000000000000e+00  2.4237112210201324e+00 -3.7287758476075439e-01 0.0000000000000000e+00  2.5065377402684756e+00 -3.7133760326852155e-01 0.0000000000000000e+00  2.5882030089394528e+00 -3.6974165386213759e-01 0.0000000000000000e+00  2.6686669572244615e+00 -3.6809003923383415e-01 0.0000000000000000e+00  2.7478896768107401e+00 -3.6638326166526952e-01 0.0000000000000000e+00  2.8258318431872227e+00 -3.6462180331509886e-01 0.0000000000000000e+00  2.9024531521394308e+00 -3.6280664401742885e-01 0.0000000000000000e+00  0.0000000000000000e+00 -4.9087385212340517e-01 0.0000000000000000e+00  9.8163130097701820e-02 -4.9081589050173546e-01 0.0000000000000000e+00  1.9625700311112743e-01 -4.9064263176194489e-01 0.0000000000000000e+00  2.9421231935801845e-01 -4.9035392476304474e-01 0.0000000000000000e+00  3.9195984941819051e-01 -4.8994983670158443e-01 0.0000000000000000e+00  4.8943046246614458e-01 -4.8943046246614430e-01 0.0000000000000000e+00  5.8655513235287227e-01 -4.8879592388847964e-01 0.0000000000000000e+00  6.8326496942241310e-01 -4.8804636989563149e-01 0.0000000000000000e+00  7.7949124650510326e-01 -4.8718197641244526e-01 0.0000000000000000e+00  8.7516542608969827e-01 -4.8620294632540101e-01 0.0000000000000000e+00  9.7021918718765110e-01 -4.8510950942593517e-01 0.0000000000000000e+00  1.0645844521711718e+00 -4.8390192235534318e-01 0.0000000000000000e+00  1.1581934135291734e+00 -4.8258046854321007e-01 0.0000000000000000e+00  1.2509785605381820e+00 -4.8114545813966153e-01 0.0000000000000000e+00  1.3428727058403658e+00 -4.7959722793869286e-01 0.0000000000000000e+00  1.4338090119203026e+00 -4.7793614129013950e-01 0.0000000000000000e+00  1.5237210174732039e+00 -4.7616258799730793e-01 0.0000000000000000e+00  1.6125426636587246e+00 -4.7427698419657460e-01 0.0000000000000000e+00  1.7002083202371623e+00 -4.7227977221444856e-01 0.0000000000000000e+00  1.7866528115912419e+00 -4.7017142039683790e-01 0.0000000000000000e+00  1.8718114426446382e+00 -4.6795242290578742e-01 0.0000000000000000e+00  1.9556200247177482e+00 -4.6562329948360059e-01 0.0000000000000000e+00  2.0380149013655431e+00 -4.6318459520165955e-01 0.0000000000000000e+00  2.1189329744225036e+00 -4.6063688025894567e-01 0.0000000000000000e+00  2.1983117301842356e+00 -4.5798075002945349e-01 0.0000000000000000e+00  2.2760892672036070e+00 -4.5521682583674139e-01 0.0000000000000000e+00  2.3522043222646216e+00 -4.5234575771983432e-01 0.0000000000000000e+00  2.4265963075303216e+00 -4.4936823126724473e-01 0.0000000000000000e+00  2.4992053115096482e+00 -4.4628498237687220e-01 0.0000000000000000e+00  2.5699721978121088e+00 -4.4309682114877613e-01 0.0000000000000000e+00  2.6388383171650514e+00 -4.3980463778360396e-01 0.0000000000000000e+00  2.7057463251205940e+00 -4.3640932960245121e-01 0.0000000000000000e+00  2.7706373651214142e+00 -4.3291208830022099e-01 0.0000000000000000e+00  0.0000000000000000e+00 -5.8904862254808621e-01 0.0000000000000000e+00  9.8158038622590552e-02 -5.8894857841856452e-01 0.0000000000000000e+00  1.9621634074947625e-01 -5.8864921069576859e-01 0.0000000000000000e+00  2.9407514554875541e-01 -5.8815039030259064e-01 0.0000000000000000e+00  3.9163482036293329e-01 -5.8745228542610883e-01 0.0000000000000000e+00  4.8879592388848070e-01 -5.8655513235287238e-01 0.0000000000000000e+00  5.8545923461781524e-01 -5.8545923461781446e-01 0.0000000000000000e+00  6.8152581344512253e-01 -5.8416496306958565e-01 0.0000000000000000e+00  7.7689705807755560e-01 -5.8267275567862986e-01 0.0000000000000000e+00  8.7147475913678463e-01 -5.8098311739430430e-01 0.0000000000000000e+00  9.6516115566184857e-01 -5.7909661996764494e-01 0.0000000000000000e+00  1.0578589904922335e+00 -5.7701390176055556e-01 0.0000000000000000e+00  1.1494715654004279e+00 -5.7473566753384076e-01 0.0000000000000000e+00  1.2399027959696161e+00 -5.7226268821375614e-01 0.0000000000000000e+00  1.3290572661883824e+00 -5.6959580063455428e-01 0.0000000000000000e+00  1.4168402827385980e+00 -5.6673590725533241e-01 0.0000000000000000e+00  1.5031579289536874e+00 -5.6368397584954211e-01 0.0000000000000000e+00  1.5879171184267762e+00 -5.6044103916612453e-01 0.0000000000000000e+00  1.6710256482521355e+00 -5.5700819456244388e-01 0.0000000000000000e+00  1.7523922518907156e+00 -5.5338660361210035e-01 0.0000000000000000e+00  1.8319266516586934e+00 -5.4957749169733816e-01 0.0000000000000000e+00  1.9095396108651321e+00 -5.4558214761057866e-01 0.0000000000000000e+00  1.9851429856132545e+00 -5.4140192322212155e-01 0.0000000000000000e+00  2.0586497764389122e+00 -5.3703823333593625e-01 0.0000000000000000e+00  2.1299741795193601e+00 -5.3249255598954837e-01 0.0000000000000000e+00  2.1990316387270310e+00 -5.2776643365696518e-01 0.0000000000000000e+00  2.2657388938891057e+00 -5.2286147619902745e-01 0.0000000000000000e+00  2.3300140391563882e+00 -5.1777936613485853e-01 0.0000000000000000e+00  2.3917765361997594e+00 -5.1252186738207006e-01 0.0000000000000000e+00  2.4509473553645633e+00 -5.0709082730416444e-01 0.0000000000000000e+00  2.5074486426254068e+00 -5.0148817664937317e-01 0.0000000000000000e+00  2.5612049208499945e+00 -4.9571585525688355e-01 0.0000000000000000e+00  2.6121388256928295e+00 -4.8977602981740553e-01 0.0000000000000000e+00  0.0000000000000000e+00 -6.8722339297276724e-01 0.0000000000000000e+00  9.8152023290994372e-02 -6.8706463530028328e-01 0.0000000000000000e+00  1.9616829110091985e-01 -6.8658928356476390e-01 0.0000000000000000e+00  2.9391306067384199e-01 -6.8579728801066087e-01 0.0000000000000000e+00  3.9125081304516535e-01 -6.8468901302287799e-01 0.0000000000000000e+00  4.8804636989563288e-01 -6.8326496942241388e-01 0.0000000000000000e+00  5.8416496306958698e-01 -6.8152581344512198e-01 0.0000000000000000e+00  6.7947234659806888e-01 -6.7947234659806743e-01 0.0000000000000000e+00  7.7383489805389083e-01 -6.7710551521772222e-01 0.0000000000000000e+00  8.6711972196543952e-01 -6.7442641003987203e-01 0.0000000000000000e+00  9.5919475218667005e-01 -6.7143626569498716e-01 0.0000000000000000e+00  1.0499288538715550e+00 -6.6813646014873918e-01 0.0000000000000000e+00  1.1391919248262281e+00 -6.6452851407950597e-01 0.0000000000000000e+00  1.2268549962110498e+00 -6.6061409019244921e-01 0.0000000000000000e+00  1.3127903325214503e+00 -6.5639499246830191e-01 0.0000000000000000e+00  1.3968715307865689e+00 -6.5187316534628537e-01 0.0000000000000000e+00  1.4789736189248306e+00 -6.4705069284153349e-01 0.0000000000000000e+00  1.5589731531986839e+00 -6.4192979759927116e-01 0.0000000000000000e+00  1.6367483147145914e+00 -6.3651283989101015e-01 0.0000000000000000e+00  1.7121790049210350e+00 -6.3080231656354468e-01 0.0000000000000000e+00  1.7851469400618707e+00 -6.2480085996168244e-01 0.0000000000000000e+00  1.8555357445620699e+00 -6.1851123686388787e-01 0.0000000000000000e+00  1.9232310432901178e+00 -6.1193634750273751e-01 0.0000000000000000e+00  1.9881205527750807e+00 -6.0507922479387644e-01 0.0000000000000000e+00  2.0500941709058913e+00 -5.9794303397906912e-01 0.0000000000000000e+00  2.1090440662942140e+00 -5.9053107294602103e-01 0.0000000000000000e+00  2.1648647617904624e+00 -5.8284677354193826e-01 0.0000000000000000e+00  2.2174532284862924e+00 -5.7489370351648561e-01 0.0000000000000000e+00  2.2667089275619756e+00 -5.6667556850584933e-01 0.0000000000000000e+00  2.3125340102903764e+00 -5.5819620676918402e-01 0.0000000000000000e+00  2.3548329514254300e+00 -5.4945958468226075e-01 0.0000000000000000e+00  2.3935141040478269e+00 -5.4046973601305359e-01 0.0000000000000000e+00  2.4284839614324900e+00 -5.3123086656335716e-01 0.0000000000000000e+00  0.0000000000000000e+00 -7.8539816339744828e-01 0.0000000000000000e+00  9.8145084133319238e-02 -7.8516128998779400e-01 0.0000000000000000e+00  1.9611285587413455e-01 -7.8445177661210164e-01 0.0000000000000000e+00  2.9372607825742392e-01 -7.8326974334944999e-01 0.0000000000000000e+00  3.9080788496983621e-01 -7.8161590134721337e-01 0.0000000000000000e+00  4.8718197641244515e-01 -7.7949124650510471e-01 0.0000000000000000e+00  5.8267275567863086e-01 -7.7689705807755527e-01 0.0000000000000000e+00  6.7710551521772189e-01 -7.7383489805388794e-01 0.0000000000000000e+00  7.7030661014386104e-01 -7.7030661014386226e-01 0.0000000000000000e+00  8.6210363372265020e-01 -7.6631431867746291e-01 0.0000000000000000e+00  9.5232559107904080e-01 -7.6186042733114323e-01 0.0000000000000000e+00  1.0408030719008570e+00 -7.5694761769991270e-01 0.0000000000000000e+00  1.1273684217757458e+00 -7.5157884770691341e-01 0.0000000000000000e+00  1.2118559120692913e+00 -7.4575734985057296e-01 0.0000000000000000e+00  1.2941019081903693e+00 -7.3948662928848652e-01 0.0000000000000000e+00  1.3739450361059327e+00 -7.3277046175915472e-01 0.0000000000000000e+00  1.4512