<?xml version="1.0"?>
<VTKFile type="UnstructuredGrid"  version="0.1"  >
<UnstructuredGrid>
<Piece  NumberOfPoints="191" NumberOfCells="316">
<Points>
<DataArray  type="Float64"  NumberOfComponents="3"  format="ascii">0 0 0  2.2 0 0  0 0.41 0  2.2 0.41 0  0.15 0.2 0  0.25 0.2 0  0 0.3280000000001975 0  0 0.2460000000004372 0  0 0.1640000000004437 0  0 0.08200000000021695 0  0.09999999999980318 0 0  0.1999999999996354 0 0  0.2999999999994593 0 0  0.3999999999991452 0 0  0.4999999999988309 0 0  0.599999999998495 0 0  0.6999999999982023 0 0  0.7999999999979096 0 0  0.8999999999975735 0 0  0.9999999999972848 0 0  1.099999999997053 0 0  1.199999999997309 0 0  1.299999999997566 0 0  1.399999999997821 0 0  1.49999999999809 0 0  1.599999999998377 0 0  1.69999999999859 0 0  1.799999999998877 0 0  1.899999999999145 0 0  1.999999999999386 0 0  2.099999999999693 0 0  2.2 0.08199999999981657 0  2.2 0.1639999999995688 0  2.2 0.2459999999995603 0  2.2 0.327999999999785 0  2.100000000000048 0.41 0  2.000000000000269 0.41 0  1.900000000000422 0.41 0  1.800000000000679 0.41 0  1.700000000000931 0.41 0  1.600000000001326 0.41 0  1.500000000001665 0.41 0  1.400000000002032 0.41 0  1.300000000002395 0.41 0  1.200000000002644 0.41 0  1.100000000002865 0.41 0  1.000000000002617 0.41 0  0.900000000002368 0.41 0  0.8000000000021192 0.41 0  0.7000000000018587 0.41 0  0.6000000000015786 0.41 0  0.5000000000013736 0.41 0  0.4000000000010933 0.41 0  0.3000000000008329 0.41 0  0.2000000000005997 0.41 0  0.1000000000003003 0.41 0  0.1566987298107312 0.1750000000000811 0  0.1749999999998563 0.1566987298108611 0  0.1999999999997858 0.15 0  0.2249999999999102 0.1566987298107262 0  0.243301270189204 0.1749999999999688 0  0.2433012701892903 0.2249999999998815 0  0.2250000000001363 0.2433012701891433 0  0.2000000000002471 0.25 0  0.1750000000001131 0.2433012701892872 0  0.1566987298107848 0.2250000000000117 0  0.4019337626311935 0.2547751748327652 0  0.3475832229480683 0.1604551945946261 0  1.999140000000448 0.2049999999995642 0  0.5953976441095865 0.2083048448728181 0  0.0962567124621478 0.3037432875381508 0  1.650000000001129 0.2050000000002855 0  1.335995976886328 0.2054603284668106 0  0.8502760891280229 0.2050198526022753 0  1.140950000001844 0.2049999999994195 0  0.306744458360636 0.3067444583600081 0  0.2877100396085694 0.1122899603911855 0  0.16874081305447 0.3166608738857746 0  0.08333912611444037 0.2312591869459617 0  0.09749620112512022 0.0974962011256523 0  0.3188610367664164 0.2318487188129129 0  0.1689830497131223 0.08424316563529498 0  1.824570000000849 0.2346439024393235 0  0.09457477031720234 0.1706540819964046 0  0.4735122784046044 0.1511221219971411 0  0.2299316285833553 0.3068345082411859 0  0.2269308095486287 0.09285945766581843 0  1.497814481808086 0.2714479024930793 0  1.004761782268646 0.2664274621747305 0  0.7248414436883386 0.1362956610527742 0  0.2963428975448648 0.1741849984063422 0  0.7351613526718148 0.2776474083133461 0  2.079369690952929 0.1247015925099931 0  2.083777944526596 0.2771916182509834 0  0.1316546404312202 0.2683453595689765 0  0.5122184723384928 0.2902822982281165 0  0.9588648784953425 0.1272791793883855 0  1.527492560727114 0.1251136657256347 0  1.245475000002452 0.1241036585355255 0  1.245475000001605 0.2858963414630766 0  1.744025836130666 0.1300839331092573 0  0.2698708163746777 0.2698708163742668 0  0.1322852939657169 0.1322852939660684 0  1.907046911037733 0.1337651301999656 0  1.423513259415748 0.1153600708982617 0  1.916617886792858 0.2886137051875741 0  1.724444148494552 0.2954404515871191 0  1.07302551731941 0.111978323492297 0  0.3552931106576229 0.07559328190911963 0  0.561693272260649 0.1053641015389243 0  1.601864018267664 0.2947337394159682 0  1.402117665235703 0.3008859353091466 0  0.8402824670865421 0.3035365362272552 0  0.8499999999977417 0.09640243902415931 0  1.648711671052875 0.09671666559663183 0  1.093281201509033 0.3020678729349752 0  0.1220706708474999 0.2232068378486631 0  0.6302522869684822 0.3070550279384166 0  0.2601486434231607 0.1398513565766712 0  2.124181305272409 0.2049999999996095 0  0.2816739280863621 0.2218844630732984 0  0.3724150748046787 0.3282928547640939 0  1.994107598394197 0.09778395946233522 0  0.1784194132300596 0.2805398462837835 0  0.4153569661599605 0.1835767283655173 0  0.1785444431312425 0.1199267716623316 0  0.4485452589047274 0.07408089902618017 0  1.333877461153269 0.08891369958586116 0  1.161612132142789 0.08444984828200376 0  1.837686340732393 0.3258810572357178 0  0.4642657253393552 0.2309594267605619 0  0.9462956284505467 0.3234518225364547 0  0.6618561546301494 0.07687917918828575 0  2.014845882718274 0.3310560483086314 0  0.04964264200060075 0.1284786814309083 0  0.1316161727650809 0.1769041488885989 0  1.737143840576959 0.2091281777062307 0  0.04809098410101473 0.2749339422377498 0  0.0459963313010527 0.1990801823079192 0  1.321705632178894 0.3278840510014703 0  0.2544161226141266 0.3571528736561397 0  1.041202455151689 0.2004823233132599 0  0.2675037618877292 0.1818773632700284 0  1.906541186051535 0.2125389476829634 0  1.450863350763697 0.2022510872942595 0  1.832880094818659 0.07803189905869952 0  1.172139437180181 0.3289191253421613 0  0.2237093422526166 0.2691981888236978 0  0.4428330455298831 0.3147130230367037 0  0.6805310962416962 0.211926711638331 0  1.224517059017542 0.2049999999991911 0  0.2708523818889232 0.05362737748313651 0  1.567440499207929 0.2049999999995999 0  0.1518379187804443 0.248726983647657 0  0.2494202614206086 0.2475135122948029 0  0.06056913625232153 0.3508217387034487 0  0.3670792895076027 0.2097729630024119 0  0.9318254375344805 0.2045094294209686 0  1.527624207834159 0.3424928540166824 0  0.4042660923743367 0.1284527824278574 0  0.2186538366544602 0.1300561738959214 0  0.134088259814295 0.3571581783465906 0  0.7482263464409975 0.06249148027418042 0  0.349537577691342 0.2752395227527867 0  0.7698310972381893 0.2056096861941826 0  0.05989128459803344 0.05559103623792021 0  1.025773761556424 0.3391435022014478 0  0.1533241875460917 0.1515468948335528 0  2.126514947561936 0.3415483658942118 0  2.130028889485561 0.06535501282233655 0  0.5235057943937791 0.1976879187122008 0  1.658737786825078 0.349105735790137 0  1.822926657648278 0.1574809263836264 0  0.5620216945935136 0.3508052122227289 0  0.7500000000019886 0.3518099917583626 0  2.052538557905294 0.05717536030732173 0  0.2010198795552315 0.3514920720495917 0  1.488511474928249 0.07415325466617727 0  0.1255582971183769 0.04943661292732552 0  1.009754465170681 0.07343930891439471 0  1.461141787440467 0.3493893336395394 0  2.149924032356263 0.283752664956678 0  2.148904460465297 0.1264742140440742 0  0.6437071596131287 0.1496903138665928 0  1.248576009249603 0.3543392363454155 0  1.249999999997437 0.05206209808530798 0  0.09456333295910178 0.2666519800660371 0  1.746749013599533 0.05786442900035908 0  0.9163930787008326 0.06967011548714039 0  1.928469212951858 0.06500236220386083 0  1.557415904072357 0.05686277928993002 0  </DataArray>
</Points>
<Cells>
<DataArray  type="UInt32"  Name="connectivity"  format="ascii">53 75 121  89 113 164  38 39 106  37 105 133  67 76 108  84 109 126  112 131 157  36 37 133  14 109 126  75 85 101  38 106 129  79 83 102  97 144 152  67 76 90  87 144 152  74 99 146  69 95 117  70 77 94  67 80 90  68 93 119  68 92 119  51 52 148  74 98 128  72 99 139  71 106 110  11 81 86  74 98 150  72 98 150  72 99 150  74 99 150  71 100 114  91 112 164  73 112 157  72 98 127  35 133 168  96 113 157  51 95 148  73 113 157  73 113 164  97 114 152  71 114 152  106 110 171  93 133 168  73 112 164  76 108 151  89 113 162  52 121 148  71 100 136  97 104 144  68 103 122  49 117 174  4 65 116  53 75 140  78 137 138  68 93 133  59 60 118  75 80 101  14 15 109  68 92 122  79 81 102  74 115 146  49 50 117  96 141 157  5 61 120  74 107 128  65 116 153  95 117 173  35 36 133  68 103 143  72 104 127  91 117 174  69 95 170  76 90 118  68 105 133  72 111 139  82 106 129  63 64 123  60 118 142  77 94 123  78 83 116  11 86 151  94 116 153  23 104 127  96 107 141  5 120 142  88 141 157  4 116 135  51 95 173  80 90 120  64 123 153  57 58 125  83 116 135  61 120 154  101 147 154  88 131 157  52 53 121  91 112 174  102 135 167  84 109 170  80 101 120  90 118 142  23 104 177  90 120 142  94 123 153  37 105 129  25 26 114  47 48 112  17 18 113  20 107 179  20 107 128  57 125 167  81 102 125  42 111 139  67 80 156  79 83 134  97 104 177  12 108 151  74 115 141  88 115 141  75 85 140  59 118 160  82 105 129  94 116 186  63 123 147  101 120 154  12 13 108  22 23 127  39 106 171  40 110 158  42 43 139  82 106 136  68 105 143  83 102 135  32 33 119  45 115 166  102 125 167  96 107 179  71 106 136  45 115 146  72 104 144  87 111 144  72 111 144  11 81 178  87 111 180  19 20 179  69 109 170  82 105 143  77 161 176  69 117 149  96 113 188  23 24 177  79 134 165  91 117 149  70 137 155  26 114 187  85 123 147  56 135 167  100 114 187  75 80 163  74 107 141  17 113 162  15 109 132  58 125 160  48 112 174  3 35 168  1 30 169  77 85 123  3 34 168  1 31 169  70 77 161  45 46 166  40 41 158  7 137 138  20 21 128  37 38 129  27 28 145  76 86 118  67 108 159  87 110 152  71 110 152  44 45 146  62 147 154  47 112 131  85 101 147  28 145 189  46 47 131  78 83 138  97 114 190  87 158 180  2 55 155  4 56 135  84 126 159  18 19 188  15 16 132  0 10 165  25 114 190  86 125 160  40 110 171  75 121 163  86 118 160  19 179 188  54 161 176  9 134 165  54 55 161  84 124 130  62 63 147  18 113 188  81 86 125  87 110 158  66 121 163  66 124 130  6 137 155  42 111 180  32 119 182  33 119 181  50 117 173  11 12 151  88 115 166  84 124 159  53 54 140  10 11 178  7 8 138  79 81 178  69 109 183  5 60 142  13 108 126  13 14 126  8 9 134  58 59 160  6 7 137  66 121 148  67 124 156  50 51 173  29 122 189  78 116 186  80 156 163  76 86 151  2 6 155  28 29 189  61 62 154  95 130 170  39 40 171  93 119 181  92 119 182  108 126 159  64 65 153  82 136 172  103 145 189  100 136 172  103 143 172  46 131 166  67 124 159  66 124 156  92 122 175  66 130 148  83 134 138  82 143 172  56 57 167  16 17 162  0 9 165  89 132 162  16 132 162  66 156 163  29 122 175  84 130 170  29 30 175  98 127 185  22 127 185  98 128 185  21 128 185  77 85 176  48 49 174  24 25 190  41 42 180  103 122 189  43 44 184  21 22 185  26 27 187  54 140 176  70 155 161  33 34 181  31 32 182  89 149 164  91 149 164  109 132 183  88 131 166  79 165 178  70 94 186  85 140 176  78 137 186  96 179 188  89 132 183  95 130 148  103 145 172  44 146 184  99 146 184  100 145 172  100 145 187  27 145 187  89 149 183  70 137 186  92 169 175  43 139 184  99 139 184  8 134 138  30 169 175  69 149 183  41 158 180  24 177 190  34 168 181  31 169 182  93 168 181  92 169 182  55 155 161  10 165 178  97 177 190  </DataArray>
<DataArray  type="UInt32"  Name="offsets"  format="ascii">3 6 9 12 15 18 21 24 27 30 33 36 39 42 45 48 51 54 57 60 63 66 69 72 75 78 81 84 87 90 93 96 99 102 105 108 111 114 117 120 123 126 129 132 135 138 141 144 147 150 153 156 159 162 165 168 171 174 177 180 183 186 189 192 195 198 201 204 207 210 213 216 219 222 225 228 231 234 237 240 243 246 249 252 255 258 261 264 267 270 273 276 279 282 285 288 291 294 297 300 303 306 309 312 315 318 321 324 327 330 333 336 339 342 345 348 351 354 357 360 363 366 369 372 375 378 381 384 387 390 393 396 399 402 405 408 411 414 417 420 423 426 429 432 435 438 441 444 447 450 453 456 459 462 465 468 471 474 477 480 483 486 489 492 495 498 501 504 507 510 513 516 519 522 525 528 531 534 537 540 543 546 549 552 555 558 561 564 567 570 573 576 579 582 585 588 591 594 597 600 603 606 609 612 615 618 621 624 627 630 633 636 639 642 645 648 651 654 657 660 663 666 669 672 675 678 681 684 687 690 693 696 699 702 705 708 711 714 717 720 723 726 729 732 735 738 741 744 747 750 753 756 759 762 765 768 771 774 777 780 783 786 789 792 795 798 801 804 807 810 813 816 819 822 825 828 831 834 837 840 843 846 849 852 855 858 861 864 867 870 873 876 879 882 885 888 891 894 897 900 903 906 909 912 915 918 921 924 927 930 933 936 939 942 945 948 </DataArray>
<DataArray  type="UInt8"  Name="types"  format="ascii">5 5 5 5 5 5 5 5 5 5 5 5 5 5 5 5 5 5 5 5 5 5 5 5 5 5 5 5 5 5 5 5 5 5 5 5 5 5 5 5 5 5 5 5 5 5 5 5 5 5 5 5 5 5 5 5 5 5 5 5 5 5 5 5 5 5 5 5 5 5 5 5 5 5 5 5 5 5 5 5 5 5 5 5 5 5 5 5 5 5 5 5 5 5 5 5 5 5 5 5 5 5 5 5 5 5 5 5 5 5 5 5 5 5 5 5 5 5 5 5 5 5 5 5 5 5 5 5 5 5 5 5 5 5 5 5 5 5 5 5 5 5 5 5 5 5 5 5 5 5 5 5 5 5 5 5 5 5 5 5 5 5 5 5 5 5 5 5 5 5 5 5 5 5 5 5 5 5 5 5 5 5 5 5 5 5 5 5 5 5 5 5 5 5 5 5 5 5 5 5 5 5 5 5 5 5 5 5 5 5 5 5 5 5 5 5 5 5 5 5 5 5 5 5 5 5 5 5 5 5 5 5 5 5 5 5 5 5 5 5 5 5 5 5 5 5 5 5 5 5 5 5 5 5 5 5 5 5 5 5 5 5 5 5 5 5 5 5 5 5 5 5 5 5 5 5 5 5 5 5 5 5 5 5 5 5 5 5 5 5 5 5 5 5 5 5 5 5 5 5 5 5 5 5 5 5 5 5 5 5 5 5 5 5 5 5 </DataArray>
</Cells>
<PointData  Vectors="f_16"> 
<DataArray  type="Float64"  Name="f_16"  NumberOfComponents="3" format="ascii">0.0000000000000000e+00 0.0000000000000000e+00 0.0000000000000000e+00  0.0000000000000000e+00 0.0000000000000000e+00 0.0000000000000000e+00  0.0000000000000000e+00 0.0000000000000000e+00 0.0000000000000000e+00  0.0000000000000000e+00 0.0000000000000000e+00 0.0000000000000000e+00  0.0000000000000000e+00 0.0000000000000000e+00 0.0000000000000000e+00  0.0000000000000000e+00 0.0000000000000000e+00 0.0000000000000000e+00  1.9200007642212816e-01 0.0000000000000000e+00 0.0000000000000000e+00  2.8800011463345671e-01 0.0000000000000000e+00 0.0000000000000000e+00  2.8800011463397229e-01 0.0000000000000000e+00 0.0000000000000000e+00  1.9200007642285608e-01 0.0000000000000000e+00 0.0000000000000000e+00  0.0000000000000000e+00 0.0000000000000000e+00 0.0000000000000000e+00  0.0000000000000000e+00 0.0000000000000000e+00 0.0000000000000000e+00  0.0000000000000000e+00 0.0000000000000000e+00 0.0000000000000000e+00  0.0000000000000000e+00 0.0000000000000000e+00 0.0000000000000000e+00  0.0000000000000000e+00 0.0000000000000000e+00 0.0000000000000000e+00  0.0000000000000000e+00 0.0000000000000000e+00 0.0000000000000000e+00  0.0000000000000000e+00 0.0000000000000000e+00 0.0000000000000000e+00  0.0000000000000000e+00 0.0000000000000000e+00 0.0000000000000000e+00  0.0000000000000000e+00 0.0000000000000000e+00 0.0000000000000000e+00  0.0000000000000000e+00 0.0000000000000000e+00 0.0000000000000000e+00  0.0000000000000000e+00 0.0000000000000000e+00 0.0000000000000000e+00  0.0000000000000000e+00 0.0000000000000000e+00 0.0000000000000000e+00  0.0000000000000000e+00 0.0000000000000000e+00 0.0000000000000000e+00  0.0000000000000000e+00 0.0000000000000000e+00 0.0000000000000000e+00  0.0000000000000000e+00 0.0000000000000000e+00 0.0000000000000000e+00  0.0000000000000000e+00 0.0000000000000000e+00 0.0000000000000000e+00  0.0000000000000000e+00 0.0000000000000000e+00 0.0000000000000000e+00  0.0000000000000000e+00 0.0000000000000000e+00 0.0000000000000000e+00  0.0000000000000000e+00 0.0000000000000000e+00 0.0000000000000000e+00  0.0000000000000000e+00 0.0000000000000000e+00 0.0000000000000000e+00  0.0000000000000000e+00 0.0000000000000000e+00 0.0000000000000000e+00  5.0419458863660296e+00 -7.9290712985550948e-01 0.0000000000000000e+00  5.4864138168590140e+00 1.4277210918876297e+00 0.0000000000000000e+00  3.5779372763322486e+00 -1.0059171321976215e+00 0.0000000000000000e+00  2.4212136867508938e-01 2.8995156991541644e+00 0.0000000000000000e+00  0.0000000000000000e+00 0.0000000000000000e+00 0.0000000000000000e+00  0.0000000000000000e+00 0.0000000000000000e+00 0.0000000000000000e+00  0.0000000000000000e+00 0.0000000000000000e+00 0.0000000000000000e+00  0.0000000000000000e+00 0.0000000000000000e+00 0.0000000000000000e+00  0.0000000000000000e+00 0.0000000000000000e+00 0.0000000000000000e+00  0.0000000000000000e+00 0.0000000000000000e+00 0.0000000000000000e+00  0.0000000000000000e+00 0.0000000000000000e+00 0.0000000000000000e+00  0.0000000000000000e+00 0.0000000000000000e+00 0.0000000000000000e+00  0.0000000000000000e+00 0.0000000000000000e+00 0.0000000000000000e+00  0.0000000000000000e+00 0.0000000000000000e+00 0.0000000000000000e+00  0.0000000000000000e+00 0.0000000000000000e+00 0.0000000000000000e+00  0.0000000000000000e+00 0.0000000000000000e+00 0.0000000000000000e+00  0.0000000000000000e+00 0.0000000000000000e+00 0.0000000000000000e+00  0.0000000000000000e+00 0.0000000000000000e+00 0.0000000000000000e+00  0.0000000000000000e+00 0.0000000000000000e+00 0.0000000000000000e+00  0.0000000000000000e+00 0.0000000000000000e+00 0.0000000000000000e+00  0.0000000000000000e+00 0.0000000000000000e+00 0.0000000000000000e+00  0.0000000000000000e+00 0.0000000000000000e+00 0.0000000000000000e+00  0.0000000000000000e+00 0.0000000000000000e+00 0.0000000000000000e+00  0.0000000000000000e+00 0.0000000000000000e+00 0.0000000000000000e+00  0.0000000000000000e+00 0.0000000000000000e+00 0.0000000000000000e+00  0.0000000000000000e+00 0.0000000000000000e+00 0.0000000000000000e+00  0.0000000000000000e+00 0.0000000000000000e+00 0.0000000000000000e+00  0.0000000000000000e+00 0.0000000000000000e+00 0.0000000000000000e+00  0.0000000000000000e+00 0.0000000000000000e+00 0.0000000000000000e+00  0.0000000000000000e+00 0.0000000000000000e+00 0.0000000000000000e+00  0.0000000000000000e+00 0.0000000000000000e+00 0.0000000000000000e+00  0.0000000000000000e+00 0.0000000000000000e+00 0.0000000000000000e+00  0.0000000000000000e+00 0.0000000000000000e+00 0.0000000000000000e+00  0.0000000000000000e+00 0.0000000000000000e+00 0.0000000000000000e+00  0.0000000000000000e+00 0.0000000000000000e+00 0.0000000000000000e+00  1.9793586961766860e+00 -2.4576886918016312e+00 0.0000000000000000e+00  -1.7226679100146720e+00 5.3705759674087750e-01 0.0000000000000000e+00  -7.0901976164888125e-01 7.3289281470696410e-01 0.0000000000000000e+00  -3.6723277330588960e-01 1.5021149674943288e+00 0.0000000000000000e+00  -2.2035034557384030e+00 -1.5762514520025850e+00 0.0000000000000000e+00  -1.1254393049928055e-01 5.4487209153082061e-01 0.0000000000000000e+00  1.0009662959806596e-01 2.7576075077469741e-02 0.0000000000000000e+00  -1.2469130988074399e-01 -4.4278636625421897e-01 0.0000000000000000e+00  -1.0641351947210074e+00 6.9313847919357435e-02 0.0000000000000000e+00  -1.1611509033997889e+00 1.0189707149195688e+00 0.0000000000000000e+00  3.2626479209505552e+00 7.8400088465589879e-01 0.0000000000000000e+00  -2.3975861581938407e+00 2.6234432802096230e+00 0.0000000000000000e+00  3.2970833199634808e+00 -1.1825272339850823e+00 0.0000000000000000e+00  -5.2165571557976023e+00 3.5122448350770781e+00 0.0000000000000000e+00  1.6477812885983025e+00 9.3353369307341207e+00 0.0000000000000000e+00  -3.1497306681040573e+00 1.8706098512926754e+00 0.0000000000000000e+00  -8.2765112292031318e-01 1.2803714249526086e+00 0.0000000000000000e+00  -5.0953061983338923e+00 8.7618259816491157e+00 0.0000000000000000e+00  1.4408341878713573e+00 -1.8779913340534657e+00 0.0000000000000000e+00  -1.3262898698062078e+00 7.9180591887178897e+00 0.0000000000000000e+00  1.0443509267484816e+00 -9.1406724362114422e-01 0.0000000000000000e+00  -9.3900571635513053e-01 -1.3539049727798365e+00 0.0000000000000000e+00  7.3541162258794901e-01 -8.5541200949145535e-01 0.0000000000000000e+00  -1.3586915984650652e-01 1.7893249426153532e-01 0.0000000000000000e+00  0.0000000000000000e+00 0.0000000000000000e+00 0.0000000000000000e+00  -1.3526095712434376e+00 -1.6916298534769600e-01 0.0000000000000000e+00  -4.4626410414922990e-01 2.7077085068811513e-01 0.0000000000000000e+00  -1.5762471217347029e+00 2.3920259546895308e+00 0.0000000000000000e+00  0.0000000000000000e+00 0.0000000000000000e+00 0.0000000000000000e+00  -1.9236846385405695e-01 1.7949183508554660e+00 0.0000000000000000e+00  7.1726170276831258e-01 -3.4675223939081046e-01 0.0000000000000000e+00  -2.5639693565591695e+00 -1.0905186668533409e-01 0.0000000000000000e+00  -1.7142462759305199e-02 -1.0041768808453699e+00 0.0000000000000000e+00  -2.1578401149602067e-01 5.4649313851735037e-01 0.0000000000000000e+00  -1.6925113974538406e+00 -4.1589652612881767e-01 0.0000000000000000e+00  0.0000000000000000e+00 0.0000000000000000e+00 0.0000000000000000e+00  0.0000000000000000e+00 0.0000000000000000e+00 0.0000000000000000e+00  -1.7208759394711712e+00 -9.6849315943355430e-01 0.0000000000000000e+00  -1.7729229395123436e+00 -1.4327936473155720e-01 0.0000000000000000e+00  4.8290265343283761e-01 2.0506595481192114e+00 0.0000000000000000e+00  -7.6241173128331774e-01 9.2929397392549040e-01 0.0000000000000000e+00  -2.2877281775500619e-01 4.4516549931671812e-01 0.0000000000000000e+00  1.6937340353922272e+00 -1.0118594663589167e+00 0.0000000000000000e+00  -3.6739669624159754e-01 -1.5430707502209093e+00 0.0000000000000000e+00  -3.0773058925577557e-01 -1.1801180098484434e+00 0.0000000000000000e+00  2.2265194049912207e-01 -6.5080561718044794e-01 0.0000000000000000e+00  1.3838228025814074e+00 2.3067648303449645e-01 0.0000000000000000e+00  -1.7363653482483772e+00 2.1685550557412639e-01 0.0000000000000000e+00  -1.7810703648598700e+00 -9.5378263934328897e-02 0.0000000000000000e+00  -7.5757656452901057e-01 -6.6832661729210341e-01 0.0000000000000000e+00  0.0000000000000000e+00 0.0000000000000000e+00 0.0000000000000000e+00  9.3800893690135223e-01 -7.5016715361552988e-01 0.0000000000000000e+00  0.0000000000000000e+00 0.0000000000000000e+00 0.0000000000000000e+00  6.8980620148421712e-02 -2.1881848689645933e+00 0.0000000000000000e+00  0.0000000000000000e+00 0.0000000000000000e+00 0.0000000000000000e+00  1.7172223752681692e+00 9.4973888301081786e+00 0.0000000000000000e+00  -1.4290426704790715e+00 1.0017329595292594e+00 0.0000000000000000e+00  0.0000000000000000e+00 0.0000000000000000e+00 0.0000000000000000e+00  8.1855354031753365e+00 2.4577611044500065e+00 0.0000000000000000e+00  0.0000000000000000e+00 0.0000000000000000e+00 0.0000000000000000e+00  2.2109436456277769e+00 -2.5303424681333402e+00 0.0000000000000000e+00  7.2288385094896690e-01 -2.7322072829179391e+00 0.0000000000000000e+00  -1.6274605727905149e+00 -2.0112571615803593e-01 0.0000000000000000e+00  -1.7277030238015043e+00 3.4354534353705163e-01 0.0000000000000000e+00  5.1873983268455781e-01 1.5605767559933736e+00 0.0000000000000000e+00  -2.5029154568637324e+00 8.2932655710003544e-01 0.0000000000000000e+00  -1.9505161500172723e+00 -1.7889479894067344e+00 0.0000000000000000e+00  -7.0300709020745977e-02 1.9512507621933817e+00 0.0000000000000000e+00  -2.0624263488733483e+00 1.9022881518970012e+00 0.0000000000000000e+00  0.0000000000000000e+00 0.0000000000000000e+00 0.0000000000000000e+00  2.1250966978339450e-01 9.6232124467777713e-01 0.0000000000000000e+00  -9.4798807659965956e+00 1.0553328938461005e+01 0.0000000000000000e+00  3.6434883026674991e-01 -9.0283341941093571e+00 0.0000000000000000e+00  1.0596851585925564e+00 -1.6711375601224324e-01 0.0000000000000000e+00  1.1541399911487506e+01 -7.7392807755542599e+00 0.0000000000000000e+00  -1.4408273877065865e+00 8.7772928870893629e-01 0.0000000000000000e+00  0.0000000000000000e+00 0.0000000000000000e+00 0.0000000000000000e+00  -1.2789322513522070e+00 3.2923324922749692e-01 0.0000000000000000e+00  6.9543243117768727e-01 6.2661351123944753e-01 0.0000000000000000e+00  -2.1872044251376890e+00 -2.8680797328586354e+00 0.0000000000000000e+00  -1.2963749057854723e+00 3.5075432514245213e+00 0.0000000000000000e+00  0.0000000000000000e+00 0.0000000000000000e+00 0.0000000000000000e+00  3.1445787333668878e+00 6.7132349983507700e-01 0.0000000000000000e+00  -7.8361877468488894e-01 4.0060955015184652e+00 0.0000000000000000e+00  -2.5958457116901629e-01 7.3042340494575597e-01 0.0000000000000000e+00  6.8135282326038071e+00 -2.2882050068191822e+00 0.0000000000000000e+00  -5.2036051404607619e-01 -6.0603824351825875e-01 0.0000000000000000e+00  0.0000000000000000e+00 0.0000000000000000e+00 0.0000000000000000e+00  0.0000000000000000e+00 0.0000000000000000e+00 0.0000000000000000e+00  -3.1089712979174005e+00 -1.7398945887967197e+00 0.0000000000000000e+00  -2.9583608840409017e+00 2.5621490748405953e+00 0.0000000000000000e+00  -2.2287249713164714e+00 1.4353344879270483e-01 0.0000000000000000e+00  2.3355960363191599e+00 -3.6569921084355839e+00 0.0000000000000000e+00  -9.1160818145519347e+00 -7.5117484916599562e+00 0.0000000000000000e+00  0.0000000000000000e+00 0.0000000000000000e+00 0.0000000000000000e+00  -4.2277544559961591e+00 1.1637055312330945e+01 0.0000000000000000e+00  1.7377362577617106e+00 -1.2246474555566993e+00 0.0000000000000000e+00  -1.3232296011596203e+01 -9.2230638525757307e+00 0.0000000000000000e+00  3.9314634692539924e-01 -4.2751207340563258e-01 0.0000000000000000e+00  -9.5608475351727318e+00 6.5332022635432905e+00 0.0000000000000000e+00  -1.0290141904244501e+00 1.2512946358629142e+00 0.0000000000000000e+00  0.0000000000000000e+00 0.0000000000000000e+00 0.0000000000000000e+00  -4.2369766835753824e+00 2.5620619146731660e+00 0.0000000000000000e+00  -2.4019195124807609e+00 -6.1770111838697392e+00 0.0000000000000000e+00  3.5939695970643011e+00 1.5024410739860412e+00 0.0000000000000000e+00  2.1114248552280825e+00 2.5085112931188593e+00 0.0000000000000000e+00  -8.9000998848237989e-01 -9.3903087308093280e-01 0.0000000000000000e+00  -6.8619546323675511e+00 1.9953698641791782e+00 0.0000000000000000e+00  -2.2461151206159173e+00 9.6573754246697507e-01 0.0000000000000000e+00  3.0763418103769462e+00 -5.6926287124915813e+00 0.0000000000000000e+00  -6.0401904597164302e+00 -1.7510197450180026e+01 0.0000000000000000e+00  -9.0569029741780172e-01 1.0383012169571992e+00 0.0000000000000000e+00  3.0300301933822436e+00 -1.1050856866935904e+01 0.0000000000000000e+00  -1.6635702829814518e+00 -4.6602675724153979e+00 0.0000000000000000e+00  -4.1934769358455801e+00 4.4198716909053912e+00 0.0000000000000000e+00  8.4299125008359450e+00 1.4040322047963090e+00 0.0000000000000000e+00  2.2630805094044217e+00 5.4464103486635285e+00 0.0000000000000000e+00  -5.3875946147704168e+00 -1.6781499881008062e+00 0.0000000000000000e+00  -3.3093141838470563e+00 1.6101113215956193e+00 0.0000000000000000e+00  2.1243759662118045e+00 -1.1913051703433433e+00 0.0000000000000000e+00  1.7783643816963025e+01 -5.3458815483698361e+00 0.0000000000000000e+00  2.5706675893119466e+00 -1.2235771288896102e+00 0.0000000000000000e+00  3.9418905141390481e+00 -4.4280507807420291e+00 0.0000000000000000e+00  -6.5164209303092868e-01 -4.9804374883667535e+00 0.0000000000000000e+00  5.4355364740502567e+00 -2.5683872291053600e+00 0.0000000000000000e+00  </DataArray> 
</PointData> 
</Piece>
</UnstructuredGrid>
</VTKFile>