<?xml version="1.0"?>
<VTKFile type="UnstructuredGrid"  version="0.1"  >
<UnstructuredGrid>
<Piece  NumberOfPoints="622" NumberOfCells="1116">
<Points>
<DataArray  type="Float64"  NumberOfComponents="3"  format="ascii">-6 -2 0  -6 2 0  6 2 0  6 -2 0  -2.8 0 0  -1.2 0 0  -5.500000000001853 -2 0  -5.000000000003705 -2 0  -4.500000000005556 -2 0  -4.000000000007409 -2 0  -3.50000000000926 -2 0  -3.000000000011112 -2 0  -2.500000000012963 -2 0  -2.000000000014814 -2 0  -1.500000000016665 -2 0  -1.000000000018516 -2 0  -0.5000000000203677 -2 0  -2.204547655537681e-11 -2 0  0.4999999999796305 -2 0  0.9999999999814779 -2 0  1.499999999983327 -2 0  1.999999999985175 -2 0  2.499999999987029 -2 0  2.999999999988882 -2 0  3.499999999990735 -2 0  3.999999999992589 -2 0  4.49999999999444 -2 0  4.999999999996293 -2 0  5.499999999998147 -2 0  6 -1.500000000001387 0  6 -1.000000000002774 0  6 -0.5000000000041616 0  6 -5.505595979116151e-12 0  6 0.4999999999958384 0  6 0.9999999999972258 0  6 1.499999999998613 0  5.500000000001853 2 0  5.000000000003705 2 0  4.500000000005556 2 0  4.000000000007409 2 0  3.50000000000926 2 0  3.000000000011112 2 0  2.500000000012963 2 0  2.000000000014814 2 0  1.500000000016665 2 0  1.000000000018516 2 0  0.5000000000203677 2 0  2.204547655537681e-11 2 0  -0.4999999999796305 2 0  -0.9999999999814779 2 0  -1.499999999983327 2 0  -1.999999999985175 2 0  -2.499999999987029 2 0  -2.999999999988882 2 0  -3.499999999990735 2 0  -3.999999999992589 2 0  -4.49999999999444 2 0  -4.999999999996293 2 0  -5.499999999998147 2 0  -6 1.500000000001387 0  -6 1.000000000002774 0  -6 0.5000000000041616 0  -6 5.505595979116151e-12 0  -6 -0.4999999999958384 0  -6 -0.9999999999972258 0  -6 -1.499999999998613 0  -2.796147781337886 -0.07841371226233997 0  -2.784628224322852 -0.1560722576115546 0  -2.765552268586196 -0.2322277418021561 0  -2.739103626009626 -0.30614674589063 0  -2.705537011479457 -0.3771173894593519 0  -2.665175689843037 -0.4444561864141836 0  -2.618408362691456 -0.5075146273293722 0  -2.565685424950688 -0.5656854249477874 0  -2.507514627332613 -0.6184083626887972 0  -2.444456186417533 -0.6651756898407991 0  -2.377117389462776 -0.7055370114776264 0  -2.306146745894456 -0.7391036260080417 0  -2.232227741806235 -0.7655522685849585 0  -2.15607225761588 -0.784628224321992 0  -2.078413712266957 -0.7961477813374315 0  -2.000000000003407 -0.7999999999999998 0  -1.921586287739523 -0.7961477813380696 0  -1.843927742389945 -0.7846282243231506 0  -1.767772258198879 -0.7655522685865098 0  -1.693853254109962 -0.7391036260098718 0  -1.622882610540873 -0.7055370114795768 0  -1.555543813585629 -0.6651756898429115 0  -1.49248537267008 -0.6184083626910072 0  -1.434314575051535 -0.5656854249500112 0  -1.381591637310384 -0.5075146273316149 0  -1.334824310158267 -0.4444561864161359 0  -1.294462988521423 -0.3771173894609975 0  -1.260896373990956 -0.3061467458920351 0  -1.234447731414138 -0.2322277418032578 0  -1.215371775677287 -0.156072257612254 0  -1.203852218662147 -0.07841371226267954 0  -1.203852218662115 0.07841371226235888 0  -1.215371775677132 0.156072257611478 0  -1.234447731413795 0.232227741802127 0  -1.260896373990353 0.3061467458905811 0  -1.294462988520456 0.3771173894591898 0  -1.334824310156812 0.444456186413959 0  -1.381591637308413 0.5075146273292139 0  -1.434314575049147 0.5656854249476236 0  -1.492485372667197 0.6184083626886415 0  -1.555543813582104 0.6651756898405565 0  -1.62288261053673 0.7055370114773629 0  -1.693853254105125 0.7391036260078683 0  -1.767772258193396 0.7655522685848468 0  -1.84392774238373 0.7846282243219146 0  -1.921586287732977 0.7961477813374253 0  -1.999999999996558 0.8 0  -2.078413712260516 0.7961477813380661 0  -2.156072257610207 0.7846282243231205 0  -2.232227741801178 0.7655522685864928 0  -2.306146745890059 0.7391036260098632 0  -2.377117389459098 0.7055370114795929 0  -2.444456186414405 0.6651756898428894 0  -2.50751462732998 0.6184083626909587 0  -2.565685424948549 0.5656854249499272 0  -2.61840836268981 0.5075146273313792 0  -2.665175689841831 0.4444561864159886 0  -2.705537011478692 0.3771173894607835 0  -2.739103626009108 0.3061467458918818 0  -2.76555226858589 0.2322277418031643 0  -2.784628224322724 0.1560722576122001 0  -2.796147781337853 0.07841371226267957 0  0.6720367661319522 0.1312687487860887 0  -4.389489086394485 0.3544472233398538 0  -3.816221554046232 -0.6097988664512611 0  -3.552726516474419 0.9342959806851625 0  -0.2536610443052337 0.8162373554653355 0  -0.1843238977799138 -0.6649951410982842 0  -3.613359951620445 0.1086570650978273 0  -3.146954163409593 -1.074378179335012 0  -0.4255266515582625 0.07734891565364931 0  -0.9413731612925856 1.168014724254929 0  -2.947764053183577 1.200029094390044 0  -0.8319852757411681 -1.058626838707328 0  2.675418990747819 -1.137325591670363e-12 0  -2.602010642259726 -1.287560129290477 0  -2.334401622060699 1.335006108940604 0  -1.524718496628401 1.32890816230333 0  -1.369813829148039 -1.26145150481762 0  -3.294065651892671 -0.4630240940010318 0  -2.072749204569071 -1.388981302138359 0  -0.7546165313921411 0.5601792161340381 0  -3.224879719581335 0.4382689715877901 0  -0.7073137361349826 -0.4625305410752652 0  4.326242945813966 0.3262429458150917 0  -3.187880061217201 0.07437712177460168 0  -2.94792024259867 0.7030255657465158 0  -2.678809277907896 0.9152683582887104 0  -4.911626141576894 -0.5700186648601188 0  -2.980647654587299 -0.5685006168686053 0  -2.769438919323564 -0.8202775213660614 0  -1.936950121013948 1.220669938589229 0  -0.8971643766260747 0.2762459428874499 0  -0.8760878018253068 -0.06836412137772707 0  -1.086827485441145 0.6772548942594016 0  -1.31355927028917 0.8808768148414213 0  -1.034266382739347 -0.5912381576649568 0  -1.241594139118264 -0.836771920085274 0  1.667161185638911 -0.6367996576268693 0  1.778189842800902 0.7191719841256095 0  -3.065106827511819 -0.266795371500425 0  3.714311277362231 -0.7275465302492842 0  -1.728329421201519 -1.09954751473283 0  4.870629493137888 -0.7325040699186681 0  -3.024707894719303 0.2567561910603656 0  -4.375540207252226 1.228935704312058 0  -2.272077148001781 -1.086192861256262 0  3.351408248797803 0.9175227128129597 0  -5.141847419540732 0.8091901960109126 0  0.5769368286199241 1.111816231125821 0  0.7411482978492124 -1.079569101289617 0  -1.074013749991219 0.430231207546053 0  -1.04664573441257 -0.3358382377487088 0  -2.439195336951085 0.9224778883059374 0  -2.902607676587358 0.4360473765597399 0  -1.629450174302152 1.035617385691805 0  -2.146859933125513 1.032375363966426 0  2.587625196444542 -0.9999926061845814 0  -2.529286802957126 -0.8830616815739111 0  -1.493798157676768 -0.8794705728517196 0  -1.932158132383022 -1.026681566564148 0  -4.09956359341904 -0.1372485582942864 0  5.055802064425553 1.050933510837308 0  -4.413659685984891 -1.207626391697488 0  -4.961411026474009 0.1201902955685026 0  -3.771151641156835 -1.303594976371997 0  -3.001321503506133 -0.04919177107285733 0  -3.881733605683001 0.5124517634812003 0  -0.1971627317996802 -1.336445372382849 0  -2.742825060181767 0.6732573903735507 0  2.520439429199979 1.129372838786189 0  -1.026326428668429 0.1384273198437734 0  -2.779290004861729 -0.5844691722665721 0  -2.895095740820851 -0.4261289730972082 0  -1.275682076193407 0.6630703172777138 0  0.1045291701958869 0.3433373435296472 0  5.175560481258801 0.0608563229178163 0  -1.211574424201636 -0.5847362589868093 0  -1.85847006217035 1.007917631940711 0  4.152535916385823 1.131901130662082 0  -1.04878257200685 -0.1253529988863012 0  1.432836501626023 0.05634449574318775 0  3.560672936003603 0.01188897172456759 0  -3.351823698389408 -0.1821329582635926 0  -5.145153363200735 -1.259166339382508 0  0.03473693330309885 -0.1724947236036572 0  -4.377830921337186 -0.6172564090242229 0  -0.3943750728122595 1.410897156959435 0  -1.661073679471639 -0.9342065000197183 0  -1.49086536677686 0.8331714487926741 0  -2.584486130952032 0.7871482690034864 0  4.270535884593893 -1.259607924744415 0  -1.757417028085795 -1.505182186951191 0  -3.430586920998477 1.425579221231371 0  -2.917598827418652 -0.2298465409534677 0  -2.328978331116049 -0.9300959620317677 0  -2.148543000691344 -0.9751580214451921 0  1.002654111360038 -0.4521702885594788 0  -4.628651824080903 -0.1127998710567241 0  -2.948904386702482 0.1555943115410545 0  0.4165242577134774 -0.5629432649478633 0  -3.698137692471105 -0.3173027948676715 0  -3.491400684461791 -0.7926319721650269 0  -0.3844454817728994 0.4680628696134375 0  -3.207830713508533 0.9778749990559993 0  3.229909751065535 -1.326302454776001 0  5.330007715336748 -1.312905173261894 0  -2.649214054100534 -0.713314536278899 0  1.342022964818772 -1.328315248672686 0  -2.556460939068198 1.202372762828344 0  -0.3497819755044588 -0.3080427614060888 0  -4.928440909495523 1.387622767511967 0  1.309170811945155 1.337467055109531 0  -1.352031940181449 -0.7151198948590243 0  -0.6132855723904642 0.9519045895123004 0  4.266838388406324 -0.3707357390867402 0  -3.834389788310238 1.371594798941152 0  -1.187890214580146 0.4851427123079557 0  -1.109118888029193 0.3185947354467283 0  0.1837819401738013 1.234799661476361 0  1.108165254659559 0.6237223548284967 0  -0.5266600156584522 -0.8113991260886402 0  -4.643822083543982 0.7834094684931707 0  -1.146235204666366 -0.4027330721405781 0  2.049029845992713 -0.2664662499985428 0  2.002665761665898 -1.328912351029848 0  -1.678783505586872 0.8978832065736417 0  -2.049499525232052 0.9483890761590005 0  -2.229972236535132 0.9181006323151361 0  -3.033763529945482 -1.54240494280775 0  -3.562344364746847 0.5622550957224539 0  -5.524396842903405 -0.2709714867672603 0  -0.9710982764034376 -1.549038578476423 0  3.058819320130555 -0.5375106252795963 0  -4.170365230099585 0.7342553699229977 0  -1.045878746461381 -8.187420622554697e-05 0  -1.864822945411764 -0.9219031104673102 0  -0.6251005091687033 -0.2120650512195049 0  2.317562622406059 0.4886417799113238 0  -0.6674371191466613 0.1483993095055008 0  -2.705757882979874 1.609712312948224 0  
[...]
<PointData  Scalars="f_24"> 
<DataArray  type="Float64"  Name="f_24"  format="ascii">1.0000005247223358e+00  1.0000005247223358e+00  1.0000005247223358e+00  1.0000005247223358e+00  3.9433210924806067e-01  1.0463520910971584e+00  9.7982259728173293e-01  9.6034218540865213e-01  9.4050355964907073e-01  9.2155334764517749e-01  9.0030148696583256e-01  8.7277407706297394e-01  8.2053217932985245e-01  7.9556551103820716e-01  8.6192240950863097e-01  1.0249660010152946e+00  1.1409423997682988e+00  1.1921009224835031e+00  1.2019525657560848e+00  1.1939261204548841e+00  1.1784235871118218e+00  1.1598539795750253e+00  1.1404783968099090e+00  1.1204822561565508e+00  1.1009916176932661e+00  1.0801639329320787e+00  1.0607140766153416e+00  1.0398971611120114e+00  1.0205452080980153e+00  1.0000005247223358e+00  1.0000005247223358e+00  1.0000005247223358e+00  1.0000005247223358e+00  1.0000005247223358e+00  1.0000005247223358e+00  1.0000005247223358e+00  1.0205684295432256e+00  1.0401943769563953e+00  1.0606403982723167e+00  1.0798776134613461e+00  1.1007091619085350e+00  1.1211668443055962e+00  1.1400178845308075e+00  1.1598991936962073e+00  1.1788156189202155e+00  1.1940384920096780e+00  1.2018900174796148e+00  1.1942953863533690e+00  1.1421025430197880e+00  1.0181292878578339e+00  8.6872199783497217e-01  7.9970043211540009e-01  8.0876971996096425e-01  8.7623286922551824e-01  8.9974954712228095e-01  9.2089172252644924e-01  9.4069828073851014e-01  9.6028942625650404e-01  9.7973034629144051e-01  1.0000005247223358e+00  1.0000005247223358e+00  1.0000005247223358e+00  1.0000005247223358e+00  1.0000005247223358e+00  1.0000005247223358e+00  1.0000005247223358e+00  3.9552281472940093e-01  4.0046919595446234e-01  3.8832658757561683e-01  3.9742969424995356e-01  3.8002908815199676e-01  4.1007461728620442e-01  3.7904281874422646e-01  4.1876316006491049e-01  3.7704479248233952e-01  4.1906636355616900e-01  3.9321871950263615e-01  4.3756120967799111e-01  4.3366269509298888e-01  4.5438782360200142e-01  4.5377590517946365e-01  4.5143709949969124e-01  4.3397969275279552e-01  4.0624955306837429e-01  3.9210919740468303e-01  4.0211437001198058e-01  4.4076775353626085e-01  5.0156076407366068e-01  5.7787825787176583e-01  6.5939946815480366e-01  7.3941157565750071e-01  8.1542293318668368e-01  8.8240598395326575e-01  9.4061251290710868e-01  9.8527801907612478e-01  1.0187028010590515e+00  1.0400795585641922e+00  1.0397036869647849e+00  1.0190588535276668e+00  9.8641683240994837e-01  9.3999292279606927e-01  8.8334682823237276e-01  8.1530441467285308e-01  7.4005431821258083e-01  6.5969634543046130e-01  5.7846740724626411e-01  5.0184029197043778e-01  4.4191595758629842e-01  4.0294915968150513e-01  3.9622207832744932e-01  4.1637336961540183e-01  4.3556436873385740e-01  4.4901007012768418e-01  4.5594233277412988e-01  4.4896644099237770e-01  4.5846587834942581e-01  4.3675291929662713e-01  4.0449343134774263e-01  3.7188922670367847e-01  4.2478211601268667e-01  3.6390620585095995e-01  4.0587555075384718e-01  3.9805677560442193e-01  3.9394968940152086e-01  3.8770103408445428e-01  4.0715535807931313e-01  3.9361688949320256e-01  3.9787269331368302e-01  1.2260275528221587e+00  9.3237206488907931e-01  9.0480755724221584e-01  8.9639127399637508e-01  1.2229428488056546e+00  1.2415347990421997e+00  8.8032833280635181e-01  8.7169895014170806e-01  1.2759849273031112e+00  9.9594859978806749e-01  8.5554742267796424e-01  1.0391614431553160e+00  1.1344119395313632e+00  8.0504693334469812e-01  7.5192873964359774e-01  7.2148607020037370e-01  7.6028235406162603e-01  8.4613491752158088e-01  7.1937223743378209e-01  1.0893965473776863e+00  8.2782050487952530e-01  1.1337281650827480e+00  1.0674772822888994e+00  7.9328286437041740e-01  7.8821115773885697e-01  7.4102465303943899e-01  9.5567081732726267e-01  7.6736267433149008e-01  7.4650712960502708e-01  6.2595482414847914e-01  1.0814315793680980e+00  1.1212304971968745e+00  8.3348187385038575e-01  5.7151461092947731e-01  9.0581015024527956e-01  6.4708954463079904e-01  1.1756835774456420e+00  1.1707337917645007e+00  7.5010609643698400e-01  1.0921262578806883e+00  4.9230434920586902e-01  1.0455194985666085e+00  7.2659151420021195e-01  9.3597806966399666e-01  6.3715329690910305e-01  1.1067063809370179e+00  9.6536632629129870e-01  1.2101511242294896e+00  1.2069434099824490e+00  9.4902246720995020e-01  9.9909325230717927e-01  6.1856757946886454e-01  6.9031025294098003e-01  4.3970939829338002e-01  5.4816437068916246e-01  1.1373859172781220e+00  6.5412818531578043e-01  4.2691261966645383e-01  4.5219817604345691e-01  9.1680996749446175e-01  1.0380376977434023e+00  9.3742022386163937e-01  9.5721870331041636e-01  9.1374000206139228e-01  6.8797656340410407e-01  9.0750150617379732e-01  1.1892690141786419e+00  6.7448814933115586e-01  1.1401264472866426e+00  1.0604001185677425e+00  6.5395912417730395e-01  6.7770376377399877e-01  7.0431804688199551e-01  1.2566718013968206e+00  1.0332420706493053e+00  7.9284810139528650e-01  4.2426197642010127e-01  1.0743215560972326e+00  1.0562730928910964e+00  1.1873901308115264e+00  1.0983751781682378e+00  8.4172398305123786e-01  9.6600892173315800e-01  1.2663844370302615e+00  9.3308077901347330e-01  1.1617949019228333e+00  3.5749741275654856e-01  4.4921651802567891e-01  6.2906294805218932e-01  1.0696519620538485e+00  7.4884165762565547e-01  9.0075388021576397e-01  6.3633815059917564e-01  5.6683012212392503e-01  5.0192752061718149e-01  1.2060072866937399e+00  9.4281476729520375e-01  6.4935578161237240e-01  1.2329739783161167e+00  8.9085595881193591e-01  8.8757963838913623e-01  1.2449951033683426e+00  8.7063377908496753e-01  1.1114740653838631e+00  1.0270415931706303e+00  6.2952505355005550e-01  1.1845241510325391e+00  7.7973881762511943e-01  1.2635864885936308e+00  9.5747181551489280e-01  1.1860782217218078e+00  6.1617582304214247e-01  1.1403940667145307e+00  1.0698743422449479e+00  9.1629553695314614e-01  8.6392147165321276e-01  9.8114727058929874e-01  1.2100123616602529e+00  1.1993796786094779e+00  1.1759662408245026e+00  9.4497496462293906e-01  9.2776976420972646e-01  1.1603103337067746e+00  1.1601660024385227e+00  3.5670351988336257e-01  4.3861404605819954e-01  4.9775181255231521e-01  8.7848988284297580e-01  8.8495354099463885e-01  9.8068361014568028e-01  1.0118878623227123e+00  1.1186296029459819e+00  9.2445206385511403e-01  1.0679677147137054e+00  3.7718035440873249e-01  1.2077889590367952e+00  1.1489119575707130e+00  1.1969766327880793e+00  8.4923902956124941e-01  1.1625034437816015e+00  6.5280061705354331e-01  6.1140285951265128e-01  1.1273777537224805e+00  8.5299529576079058e-01  9.8277991407958931e-01  1.2165358902802830e+00  9.4662336431148364e-01  8.5185539997531434e-01  7.9337238591065284e-01  9.0697625776227020e-01  5.7563468862105793e-01  1.1534575098653066e+00  5.7660522084250920e-01  9.7934044908562379e-01  1.0133708535431971e+00  1.2340743869911444e+00  1.0265523096533171e+00  8.3097732576563721e-01  1.1175798738420413e+00  1.0514240267151944e+00  9.7942530713859688e-01  7.8581176212104287e-01  1.2028908622372541e+00  1.0946513644155031e+00  8.4737192091639302e-01  8.2585536886606037e-01  8.0843369632003637e-01  8.3836586724749373e-01  1.0248648941001572e+00  5.3560719466871110e-01  5.6140964999572962e-01  7.8367995353709174e-01  7.7566102493483180e-01  1.1252917659423003e+00  8.0022578907832875e-01  8.6759803325383544e-01  9.7378490611792745e-01  3.9993925328815622e-01  5.7056476695939951e-01  5.7562283575894835e-01  8.5961536760190493e-01  1.0229644025774920e+00  9.1321920531083944e-01  1.0852175320293680e+00  4.6003599992050398e-01  4.1711978940174643e-01  9.4852803756167003e-01  1.0540402141017211e+00  5.0670315365845586e-01  5.5850355862027967e-01  5.4537048008987199e-01  5.8065166400100798e-01  5.3141888391110981e-01  7.0025983930987024e-01  1.0911051554238183e+00  1.0483798788971865e+00  9.2230150404105027e-01  8.8198033932872433e-01  7.9680110734717391e-01  8.9706908621933246e-01  5.1841065465803526e-01  1.1213971065286967e+00  3.6248561258726170e-01  4.0061237216893808e-01  1.0111336290747079e+00  1.1175437488360442e+00  6.9815576392672152e-01  1.0484423036542239e+00  7.8142156049209954e-01  9.1827114295266166e-01  1.1997797994990986e+00  1.1299288717246312e+00  9.5001086877745466e-01  8.5448418539008653e-01  6.5080654136556559e-01  1.0321807352991803e+00  1.2193619872251553e+00  6.0806219998430844e-01  4.3095144970452853e-01  4.6102294414274020e-01  1.1560397356292076e+00  1.0788549894685104e+00  3.9457639854601245e-01  5.4573893553384667e-01  5.3942370878495893e-01  9.2910023112535889e-01  9.2794591074709565e-01  1.1940408598220740e+00  3.6198222715573275e-01  1.0389573680269601e+00  5.4793345051995612e-01  8.8343655661259313e-01  1.0363236787536825e+00  9.6454366042920603e-01  9.5022699856336434e-01  1.1986885688514795e+00  5.4430576963494082e-01  1.2407106771712360e+00  5.4256233166746171e-01  1.1676277754339139e+00  8.7129592002855782e-01  1.0366082600705557e+00  1.1884779999779742e+00  1.0508787117371645e+00  5.3938946886060735e-01  8.7913269427764495e-01  7.0079476007430208e-01  9.8252249485370602e-01  1.1374311397029651e+00  5.3753854359854747e-01  7.8021317459243700e-01  5.3913042118413423e-01  9.8448433981069927e-01  1.2249900038381019e+00  7.4164463963277838e-01  1.2123653966630985e+00  3.9035507552664928e-01  7.6890039307070102e-01  4.6216255214959856e-01  9.2415619339658983e-01  5.1453804358656274e-01  4.3051270721281237e-01  9.1864416873021459e-01  4.6578079345727647e-01  4.5886068855868911e-01  4.8819628982090585e-01  4.9828827081300769e-01  8.0160510844938870e-01  5.5379294235448906e-01  1.2760758379282082e+00  3.8342131277373487e-01  5.9317663815717958e-01  3.7466181555236205e-01  8.1032711261600276e-01  7.3964831881177251e-01  9.0826042677553365e-01  7.2102623947012312e-01  1.0802473397301651e+00  1.0574433353847978e+00  7.6436484153892881e-01  6.1781532204361989e-01  8.6473021045155618e-01  5.2611233222817244e-01  8.4369068016048321e-01  8.5117091663435462e-01  9.6981625149235096e-01  7.7066665403703338e-01  7.0243532025651478e-01  1.1460779795086731e+00  9.1922207473718875e-01  1.0306822161921736e+00  1.0646346458447207e+00  9.1217156824688228e-01  8.8166738464895211e-01  8.1888739820369627e-01  7.3810004585959421e-01  1.2496631250262624e+00  9.3065455189214707e-01  6.9430719838296684e-01  1.0169974865551192e+00  9.5936032354814182e-01  1.0496168011601630e+00  9.7017795404609686e-01  1.2063730176022678e+00  7.5998968026635227e-01  1.0499171778331438e+00  8.0961748367969721e-01  1.0712247410974631e+00  6.5634555764691327e-01  7.8172772157224013e-01  8.9618280930319505e-01  1.0151331774800780e+00  7.0993974360899026e-01  8.8373140104481274e-01  1.1559072453171180e+00  8.2332505845782000e-01  9.1092992460961453e-01  1.1913407019944464e+00  5.3470991275510871e-01  1.0179128482846003e+00  1.1900850982549063e+00  5.3147506490385599e-01  6.1732569526852565e-01  9.4350711465147818e-01  7.8526622251513156e-01  8.2713508066974606e-01  5.2355257448399961e-01  6.1837054669534197e-01  1.1721320272974876e+00  1.1175191007306464e+00  1.1028327449987594e+00  1.1248881047750310e+00  9.4984852566235878e-01  1.1052652941334244e+00  1.1106328074509511e+00  8.9708033960928413e-01  1.1579179460141598e+00  8.9359126812026979e-01  1.1826186167945607e+00  9.7646163154143795e-01  8.6374116638221088e-01  1.2508116099731101e+00  1.1859098789629581e+00  8.7248055948294878e-01  1.1991828183082731e+00  9.4459123183261806e-01  1.2030019217199941e+00  1.1503526917541471e+00  9.7319188940531465e-01  1.0673497578097533e+00  9.6369085219700468e-01  1.2812298255976167e+00  7.0145219150869176e-01  1.1204564415404601e+00  1.2539737379029166e+00  6.9028046257564868e-01  1.2144166779368522e+00  5.1687154321014950e-01  1.1975505306638168e+00  1.1587822346522318e+00  3.8119423042465267e-01  1.0956648604514871e+00  1.0160841049849600e+00  1.0707783578399945e+00  1.1499570078687229e+00  1.1736561747230621e+00  9.4032971727737624e-01  1.0384635109114555e+00  1.1744042825336503e+00  7.1895813740275560e-01  3.9050956628563493e-01  1.1308825207840993e+00  8.9489100291969848e-01  8.6985486784557187e-01  1.0840920090068491e+00  7.2922894704985919e-01  8.0413492125120167e-01  6.7988966623269964e-01  1.0200482631876089e+00  8.8059850226741665e-01  1.2411295691154667e+00  5.1400859997101078e-01  9.2132405026566488e-01  9.3450282778238392e-01  4.4072715405468771e-01  1.2207601564224588e+00  1.0528737935323995e+00  7.0552005004097773e-01  1.0867727791444621e+00  9.0190620301744084e-01  8.3932840145875109e-01  4.1565945542660526e-01  8.6247820685769794e-01  9.2400245974030881e-01  1.0529274590904667e+00  8.9078886691445358e-01  6.7493788268150334e-01  3.7394479626024385e-01  9.6782301903621992e-01  5.5598109770624227e-01  1.2397714648181932e+00  1.0924046709446293e+00  8.5287905732848590e-01  6.9349867889897887e-01  6.9556749476290347e-01  9.3518285755342434e-01  1.0918781528040842e+00  8.1672338473545014e-01  3.9070364288992204e-01  9.1470533730156922e-01  1.1829339907399734e+00  9.0803047408093129e-01  9.6517513782468378e-01  1.0143647298451914e+00  9.8620082930684827e-01  9.6759524925583207e-01  1.1110304750088591e+00  1.1873989044130362e+00  1.2098009444412638e+00  1.0317251549652375e+00  9.8632466452062861e-01  1.1882419084731166e+00  1.1747242881020716e+00  8.9262810815955262e-01  1.1869157630953437e+00  8.5200864917662245e-01  9.4543572994077651e-01  1.0995744157115537e+00  3.8894967447522893e-01  1.1109742398564464e+00  5.4940440375954902e-01  9.0724044896586409e-01  9.3038118221070853e-01  1.0352781603988792e+00  8.7148630904876045e-01  1.1951050274528168e+00  1.2221696352221567e+00  1.1531195577040143e+00  1.2062232239194823e+00  1.1384984230043873e+00  1.0880107571416484e+00  8.1185356145349197e-01  1.1038623346750174e+00  1.2642247598015532e+00  6.0320372157102387e-01  1.2203960729694652e+00  6.7438685713713764e-01  1.2072321648745856e+00  1.0118737808154232e+00  7.2191808711548222e-01  9.9580914818449073e-01  1.0177207211631794e+00  9.0792920872945626e-01  1.0678504993025368e+00  6.3168813398473189e-01  1.1865054719175374e+00  8.1504174455527978e-01  9.5472092817150689e-01  5.0133381017269718e-01  9.3607827219023532e-01  5.3504540780862730e-01  7.3114194380737196e-01  9.5441190851684099e-01  1.2331672427393823e+00  1.2722668064917071e+00  1.0843864993766339e+00  1.0128319201973310e+00  1.0792711788813960e+00  1.1757983715447307e+00  8.1249351417173676e-01  8.4939379291623596e-01  8.7546144564755146e-01  1.1413039243357290e+00  7.8342613313762977e-01  4.9617923466182035e-01  1.2635631901672846e+00  6.5179644128705039e-01  9.8862551389920483e-01  9.2501316220557706e-01  7.5079052298729176e-01  9.0041674516602022e-01  9.6302133205062368e-01  7.4896111595844916e-01  9.3976620415299650e-01  9.8737816922648192e-01  1.0648134450414382e+00  1.1466104674096491e+00  8.3461832879611075e-01  1.1723951498933112e+00  1.0472880695876219e+00  9.6931552399711751e-01  1.0592216495425548e+00  6.1305750046349183e-01  9.6089153819212503e-01  </DataArray> 
</PointData> 
</Piece>
</UnstructuredGrid>
</VTKFile>