<?xml version="1.0"?>
<VTKFile type="UnstructuredGrid"  version="0.1"  >
<UnstructuredGrid>
<Piece  NumberOfPoints="622" NumberOfCells="1116">
<Points>
<DataArray  type="Float64"  NumberOfComponents="3"  format="ascii">-6 -2 0  -6 2 0  6 2 0  6 -2 0  -2.8 0 0  -1.2 0 0  -5.500000000001853 -2 0  -5.000000000003705 -2 0  -4.500000000005556 -2 0  -4.000000000007409 -2 0  -3.50000000000926 -2 0  -3.000000000011112 -2 0  -2.500000000012963 -2 0  -2.000000000014814 -2 0  -1.500000000016665 -2 0  -1.000000000018516 -2 0  -0.5000000000203677 -2 0  -2.204547655537681e-11 -2 0  0.4999999999796305 -2 0  0.9999999999814779 -2 0  1.499999999983327 -2 0  1.999999999985175 -2 0  2.499999999987029 -2 0  2.999999999988882 -2 0  3.499999999990735 -2 0  3.999999999992589 -2 0  4.49999999999444 -2 0  4.999999999996293 -2 0  5.499999999998147 -2 0  6 -1.500000000001387 0  6 -1.000000000002774 0  6 -0.5000000000041616 0  6 -5.505595979116151e-12 0  6 0.4999999999958384 0  6 0.9999999999972258 0  6 1.499999999998613 0  5.500000000001853 2 0  5.000000000003705 2 0  4.500000000005556 2 0  4.000000000007409 2 0  3.50000000000926 2 0  3.000000000011112 2 0  2.500000000012963 2 0  2.000000000014814 2 0  1.500000000016665 2 0  1.000000000018516 2 0  0.5000000000203677 2 0  2.204547655537681e-11 2 0  -0.4999999999796305 2 0  -0.9999999999814779 2 0  -1.499999999983327 2 0  -1.999999999985175 2 0  -2.499999999987029 2 0  -2.999999999988882 2 0  -3.499999999990735 2 0  -3.999999999992589 2 0  -4.49999999999444 2 0  -4.999999999996293 2 0  -5.499999999998147 2 0  -6 1.500000000001387 0  -6 1.000000000002774 0  -6 0.5000000000041616 0  -6 5.505595979116151e-12 0  -6 -0.4999999999958384 0  -6 -0.9999999999972258 0  -6 -1.499999999998613 0  -2.796147781337886 -0.07841371226233997 0  -2.784628224322852 -0.1560722576115546 0  -2.765552268586196 -0.2322277418021561 0  -2.739103626009626 -0.30614674589063 0  -2.705537011479457 -0.3771173894593519 0  -2.665175689843037 -0.4444561864141836 0  -2.618408362691456 -0.5075146273293722 0  -2.565685424950688 -0.5656854249477874 0  -2.507514627332613 -0.6184083626887972 0  -2.444456186417533 -0.6651756898407991 0  -2.377117389462776 -0.7055370114776264 0  -2.306146745894456 -0.7391036260080417 0  -2.232227741806235 -0.7655522685849585 0  -2.15607225761588 -0.784628224321992 0  -2.078413712266957 -0.7961477813374315 0  -2.000000000003407 -0.7999999999999998 0  -1.921586287739523 -0.7961477813380696 0  -1.843927742389945 -0.7846282243231506 0  -1.767772258198879 -0.7655522685865098 0  -1.693853254109962 -0.7391036260098718 0  -1.622882610540873 -0.7055370114795768 0  -1.555543813585629 -0.6651756898429115 0  -1.49248537267008 -0.6184083626910072 0  -1.434314575051535 -0.5656854249500112 0  -1.381591637310384 -0.5075146273316149 0  -1.334824310158267 -0.4444561864161359 0  -1.294462988521423 -0.3771173894609975 0  -1.260896373990956 -0.3061467458920351 0  -1.234447731414138 -0.2322277418032578 0  -1.215371775677287 -0.156072257612254 0  -1.203852218662147 -0.07841371226267954 0  -1.203852218662115 0.07841371226235888 0  -1.215371775677132 0.156072257611478 0  -1.234447731413795 0.232227741802127 0  -1.260896373990353 0.3061467458905811 0  -1.294462988520456 0.3771173894591898 0  -1.334824310156812 0.444456186413959 0  -1.381591637308413 0.5075146273292139 0  -1.434314575049147 0.5656854249476236 0  -1.492485372667197 0.6184083626886415 0  -1.555543813582104 0.6651756898405565 0  -1.62288261053673 0.7055370114773629 0  -1.693853254105125 0.7391036260078683 0  -1.767772258193396 0.7655522685848468 0  -1.84392774238373 0.7846282243219146 0  -1.921586287732977 0.7961477813374253 0  -1.999999999996558 0.8 0  -2.078413712260516 0.7961477813380661 0  -2.156072257610207 0.7846282243231205 0  -2.232227741801178 0.7655522685864928 0  -2.306146745890059 0.7391036260098632 0  -2.377117389459098 0.7055370114795929 0  -2.444456186414405 0.6651756898428894 0  -2.50751462732998 0.6184083626909587 0  -2.565685424948549 0.5656854249499272 0  -2.61840836268981 0.5075146273313792 0  -2.665175689841831 0.4444561864159886 0  -2.705537011478692 0.3771173894607835 0  -2.739103626009108 0.3061467458918818 0  -2.76555226858589 0.2322277418031643 0  -2.784628224322724 0.1560722576122001 0  -2.796147781337853 0.07841371226267957 0  0.6720367661319522 0.1312687487860887 0  -4.389489086394485 0.3544472233398538 0  -3.816221554046232 -0.6097988664512611 0  -3.552726516474419 0.9342959806851625 0  -0.2536610443052337 0.8162373554653355 0  -0.1843238977799138 -0.6649951410982842 0  -3.613359951620445 0.1086570650978273 0  -3.146954163409593 -1.074378179335012 0  -0.4255266515582625 0.07734891565364931 0  -0.9413731612925856 1.168014724254929 0  -2.947764053183577 1.200029094390044 0  -0.8319852757411681 -1.058626838707328 0  2.675418990747819 -1.137325591670363e-12 0  -2.602010642259726 -1.287560129290477 0  -2.334401622060699 1.335006108940604 0  -1.524718496628401 1.32890816230333 0  -1.369813829148039 -1.26145150481762 0  -3.294065651892671 -0.4630240940010318 0  -2.072749204569071 -1.388981302138359 0  -0.7546165313921411 0.5601792161340381 0  -3.224879719581335 0.4382689715877901 0  -0.7073137361349826 -0.4625305410752652 0  4.326242945813966 0.3262429458150917 0  -3.187880061217201 0.07437712177460168 0  -2.94792024259867 0.7030255657465158 0  -2.678809277907896 0.9152683582887104 0  -4.911626141576894 -0.5700186648601188 0  -2.980647654587299 -0.5685006168686053 0  -2.769438919323564 -0.8202775213660614 0  -1.936950121013948 1.220669938589229 0  -0.8971643766260747 0.2762459428874499 0  -0.8760878018253068 -0.06836412137772707 0  -1.086827485441145 0.6772548942594016 0  -1.31355927028917 0.8808768148414213 0  -1.034266382739347 -0.5912381576649568 0  -1.241594139118264 -0.836771920085274 0  1.667161185638911 -0.6367996576268693 0  1.778189842800902 0.7191719841256095 0  -3.065106827511819 -0.266795371500425 0  3.714311277362231 -0.7275465302492842 0  -1.728329421201519 -1.09954751473283 0  4.870629493137888 -0.7325040699186681 0  -3.024707894719303 0.2567561910603656 0  -4.375540207252226 1.228935704312058 0  -2.272077148001781 -1.086192861256262 0  3.351408248797803 0.9175227128129597 0  -5.141847419540732 0.8091901960109126 0  0.5769368286199241 1.111816231125821 0  0.7411482978492124 -1.079569101289617 0  -1.074013749991219 0.430231207546053 0  -1.04664573441257 -0.3358382377487088 0  -2.439195336951085 0.9224778883059374 0  -2.902607676587358 0.4360473765597399 0  -1.629450174302152 1.035617385691805 0  -2.146859933125513 1.032375363966426 0  2.587625196444542 -0.9999926061845814 0  -2.529286802957126 -0.8830616815739111 0  -1.493798157676768 -0.8794705728517196 0  -1.932158132383022 -1.026681566564148 0  -4.09956359341904 -0.1372485582942864 0  5.055802064425553 1.050933510837308 0  -4.413659685984891 -1.207626391697488 0  -4.961411026474009 0.1201902955685026 0  -3.771151641156835 -1.303594976371997 0  -3.001321503506133 -0.04919177107285733 0  -3.881733605683001 0.5124517634812003 0  -0.1971627317996802 -1.336445372382849 0  -2.742825060181767 0.6732573903735507 0  2.520439429199979 1.129372838786189 0  -1.026326428668429 0.1384273198437734 0  -2.779290004861729 -0.5844691722665721 0  -2.895095740820851 -0.4261289730972082 0  -1.275682076193407 0.6630703172777138 0  0.1045291701958869 0.3433373435296472 0  5.175560481258801 0.0608563229178163 0  -1.211574424201636 -0.5847362589868093 0  -1.85847006217035 1.007917631940711 0  4.152535916385823 1.131901130662082 0  -1.04878257200685 -0.1253529988863012 0  1.432836501626023 0.05634449574318775 0  3.560672936003603 0.01188897172456759 0  -3.351823698389408 -0.1821329582635926 0  -5.145153363200735 -1.259166339382508 0  0.03473693330309885 -0.1724947236036572 0  -4.377830921337186 -0.6172564090242229 0  -0.3943750728122595 1.410897156959435 0  -1.661073679471639 -0.9342065000197183 0  -1.49086536677686 0.8331714487926741 0  -2.584486130952032 0.7871482690034864 0  4.270535884593893 -1.259607924744415 0  -1.757417028085795 -1.505182186951191 0  -3.430586920998477 1.425579221231371 0  -2.917598827418652 -0.2298465409534677 0  -2.328978331116049 -0.9300959620317677 0  -2.148543000691344 -0.9751580214451921 0  1.002654111360038 -0.4521702885594788 0  -4.628651824080903 -0.1127998710567241 0  -2.948904386702482 0.1555943115410545 0  0.4165242577134774 -0.5629432649478633 0  -3.698137692471105 -0.3173027948676715 0  -3.491400684461791 -0.7926319721650269 0  -0.3844454817728994 0.4680628696134375 0  -3.207830713508533 0.9778749990559993 0  3.229909751065535 -1.326302454776001 0  5.330007715336748 -1.312905173261894 0  -2.649214054100534 -0.713314536278899 0  1.342022964818772 -1.328315248672686 0  -2.556460939068198 1.202372762828344 0  -0.3497819755044588 -0.3080427614060888 0  -4.928440909495523 1.387622767511967 0  1.309170811945155 1.337467055109531 0  -1.352031940181449 -0.7151198948590243 0  -0.6132855723904642 0.9519045895123004 0  4.266838388406324 -0.3707357390867402 0  -3.834389788310238 1.371594798941152 0  -1.187890214580146 0.4851427123079557 0  -1.109118888029193 0.3185947354467283 0  0.1837819401738013 1.234799661476361 0  1.108165254659559 0.6237223548284967 0  -0.5266600156584522 -0.8113991260886402 0  -4.643822083543982 0.7834094684931707 0  -1.146235204666366 -0.4027330721405781 0  2.049029845992713 -0.2664662499985428 0  2.002665761665898 -1.328912351029848 0  -1.678783505586872 0.8978832065736417 0  -2.049499525232052 0.9483890761590005 0  -2.229972236535132 0.9181006323151361 0  -3.033763529945482 -1.54240494280775 0  -3.562344364746847 0.5622550957224539 0  -5.524396842903405 -0.2709714867672603 0  -0.9710982764034376 -1.549038578476423 0  3.058819320130555 -0.5375106252795963 0  -4.170365230099585 0.7342553699229977 0  -1.045878746461381 -8.187420622554697e-05 0  -1.864822945411764 -0.9219031104673102 0  -0.6251005091687033 -0.2120650512195049 0  2.317562622406059 0.4886417799113238 0  -0.6674371191466613 0.1483993095055008 0  -2.705757882979874 1.609712312948224 0  
[...]
<PointData  Scalars="f_24"> 
<DataArray  type="Float64"  Name="f_24"  format="ascii">9.9999997587867284e-01  9.9999997587867284e-01  9.9999997587867284e-01  9.9999997587867284e-01  4.7668126292297419e-01  8.5829159589595549e-01  9.8533709263989744e-01  9.7144334552315692e-01  9.5828715331831127e-01  9.4808194827848347e-01  9.4120374913847638e-01  9.3905089658857088e-01  9.3651434202171346e-01  9.1812636426305727e-01  8.7027812921394931e-01  8.4549869560422108e-01  9.1767339153466954e-01  1.0284596360167573e+00  1.0975653085062811e+00  1.1202360651638168e+00  1.1248386373476735e+00  1.1214618538080785e+00  1.1110865773678291e+00  1.0964984081780562e+00  1.0813094683009623e+00  1.0638687760779160e+00  1.0488308361699956e+00  1.0313153647272137e+00  1.0166089561391505e+00  9.9999997587867284e-01  9.9999997587867284e-01  9.9999997587867284e-01  9.9999997587867284e-01  9.9999997587867284e-01  9.9999997587867284e-01  9.9999997587867284e-01  1.0164524206151548e+00  1.0315437549892552e+00  1.0487775389947716e+00  1.0635115280880758e+00  1.0809054020771165e+00  1.0972307704081501e+00  1.1101382924525884e+00  1.1213164820006036e+00  1.1242607970059164e+00  1.1197186570924598e+00  1.0976985365149183e+00  1.0327040954535287e+00  9.2068279031311417e-01  8.4711979582918806e-01  8.7658438864932897e-01  9.1719610755842018e-01  9.3659892771219588e-01  9.3845061104061445e-01  9.4090346069166253e-01  9.4723584426840490e-01  9.5832951578604153e-01  9.7092158990215272e-01  9.8484762427431749e-01  9.9999997587867284e-01  9.9999997587867284e-01  9.9999997587867284e-01  9.9999997587867284e-01  9.9999997587867284e-01  9.9999997587867284e-01  9.9999997587867284e-01  4.8099418465821198e-01  4.9423345265299989e-01  5.0293587340561963e-01  5.2761254452663808e-01  5.4708778449817230e-01  5.8944207190169629e-01  6.0210918872033770e-01  6.5130375296132503e-01  6.6283417722846383e-01  7.2113922789580442e-01  7.4624149152116215e-01  8.1010393093394650e-01  8.4400355241752123e-01  8.9381533151843462e-01  9.2716059608197576e-01  9.5563437346815938e-01  9.7106947376836261e-01  9.6447907348383666e-01  9.4366193163025491e-01  9.1444935113690429e-01  8.8410852743470747e-01  8.5759617432741153e-01  8.4004712589400743e-01  8.2947307817556926e-01  8.2698328987684422e-01  8.2865206465623487e-01  8.3430389588541531e-01  8.4094137923768841e-01  8.4772541975408078e-01  8.5330980348501595e-01  8.5708876092100728e-01  8.5706156269056433e-01  8.5340357659599020e-01  8.4783922745427220e-01  8.4113036090288051e-01  8.3401845017934595e-01  8.2876977842338040e-01  8.2632932158301398e-01  8.2909934188002543e-01  8.3921264804797802e-01  8.5745843363344776e-01  8.8441567766285278e-01  9.1671852280444810e-01  9.4607912976147091e-01  9.6855599470456510e-01  9.7185456946309179e-01  9.5988991123538503e-01  9.3408454261021778e-01  8.9180384966855053e-01  8.6271959839691670e-01  8.1472904083856057e-01  7.5547986200366402e-01  6.9826755889256920e-01  6.8890576604724385e-01  6.2661599469937279e-01  6.1055263562666917e-01  5.8393123794912372e-01  5.5433775567528809e-01  5.2381199387075572e-01  5.1551743856319421e-01  4.9066973522343288e-01  4.8274400400160700e-01  1.0696724361792014e+00  9.3927002613756194e-01  9.1476403613980628e-01  9.1894966547337020e-01  9.4106735268784270e-01  9.6749366531161718e-01  8.7958283551756022e-01  9.2345363947357062e-01  9.3303306582234424e-01  7.1200455707607846e-01  9.3272497825591183e-01  7.1738808733738912e-01  1.1009071479572747e+00  9.4312470789388803e-01  9.3944050379711252e-01  8.4077592441863735e-01  7.9490404310206664e-01  8.5830580101336817e-01  9.3063151092289953e-01  8.4871171254793076e-01  8.4156323401952138e-01  8.6826797129478772e-01  1.0533067463924204e+00  7.9115243778275179e-01  8.5721411733225694e-01  8.9975922242171980e-01  9.6254613496563513e-01  8.2212825388282773e-01  8.7723328223887953e-01  9.1245650457900596e-01  8.6335214498795254e-01  8.7431877946153824e-01  7.9995744996353224e-01  7.9821354746196205e-01  8.1630692887765133e-01  7.8742342376842478e-01  1.1061293237137440e+00  1.1071963575068793e+00  7.6437706386203830e-01  1.0726539028388231e+00  8.9405638681876476e-01  1.0361930562638464e+00  7.4492881842822023e-01  9.5129351971046872e-01  9.1819736262677487e-01  1.0842929511403647e+00  9.7174968733760647e-01  1.0927807270268481e+00  1.0977633164988059e+00  8.3709160685959905e-01  8.4719212748412154e-01  8.8766038619343068e-01  7.5088487306110019e-01  8.7932750287595829e-01  9.0785928992702603e-01  1.1051498003147768e+00  8.8199426446389106e-01  8.5455499922710798e-01  9.1055680805443728e-01  9.2134089470455238e-01  1.0302835531083885e+00  9.5252418673791106e-01  9.6276734291211530e-01  9.3952035431686087e-01  6.9979827378358228e-01  9.1530149505856406e-01  9.5115244364901608e-01  8.1489437509336793e-01  1.1072538456321479e+00  8.6073580854368292e-01  7.7487906094227466e-01  7.4093247282604424e-01  8.1397872847708264e-01  1.0158117644626481e+00  1.0263159139352522e+00  8.1827559467580668e-01  9.1420298746926354e-01  1.0590497957813714e+00  8.5993621807122089e-01  1.1005745110678939e+00  1.0770063707256763e+00  8.4034498525996260e-01  9.7403922024909373e-01  1.0030078462059158e+00  9.4206715858143031e-01  8.8628076723928106e-01  8.9672249696857964e-01  8.5227306908879996e-01  8.4519668189202246e-01  1.0555450118714695e+00  8.9891433406269960e-01  9.3806990969270543e-01  6.7474926134316837e-01  8.8420977791783617e-01  8.9884042082424420e-01  1.0914720975337664e+00  9.4889575226043177e-01  6.7519031332831392e-01  1.0582419926409867e+00  8.9420273684608531e-01  9.0789614062385771e-01  9.2925489863582444e-01  9.1397467686220646e-01  1.0889775799101280e+00  1.0215932063205875e+00  8.1636384358928449e-01  1.1144637888433824e+00  9.3812854267932499e-01  9.4167395027811418e-01  9.6793428395101966e-01  1.1141365572075004e+00  8.2087872603782741e-01  7.9283925423414614e-01  1.0552107544433185e+00  9.4169627871162054e-01  8.2802322056118460e-01  8.4564231059920691e-01  1.0533298862856433e+00  1.0971318838194746e+00  8.4763123778987681e-01  9.5420736868963973e-01  8.3669592367298906e-01  1.1073191371016040e+00  1.1159231436621992e+00  9.0737265061939265e-01  9.0766164969196617e-01  8.8042330580104144e-01  9.3998103515355336e-01  8.9503886233139873e-01  9.8362643332439792e-01  7.9240391958603928e-01  1.0917746125174088e+00  9.3534588694846243e-01  8.6250970999122911e-01  9.2551111351299187e-01  8.9940995821096648e-01  1.1069021685963636e+00  8.9609283086086522e-01  9.3973986358639272e-01  1.1167519363443548e+00  7.5792785730460832e-01  6.7237242633543026e-01  8.7387693062662541e-01  8.8587175671432972e-01  9.8622720262340235e-01  1.0407582462718004e+00  8.3454753136225268e-01  8.8335297221471509e-01  9.1014066206904154e-01  9.1016591427857996e-01  8.2479257687530216e-01  8.7936433277878379e-01  6.9139737100653220e-01  7.6766282363305949e-01  8.5190202742148458e-01  1.0424905124890802e+00  1.0209914513826304e+00  8.9303003405509362e-01  1.0939108558234543e+00  7.9862255411840022e-01  9.8251790637452940e-01  7.8533377962910178e-01  1.0735933101574255e+00  1.0755194166563904e+00  8.4679888909479395e-01  9.1096176609928392e-01  7.4444961186256775e-01  9.3096543153643874e-01  1.0197157429441337e+00  8.2095974889031187e-01  7.7522268599479283e-01  7.6954444905161978e-01  8.0387899666555229e-01  1.0965004148879365e+00  9.3765416111698918e-01  7.6625674290837109e-01  9.7894860928405369e-01  8.9168021476218939e-01  6.1296308597943150e-01  6.4479267647738714e-01  7.3346289147735577e-01  1.0182133815393382e+00  9.2806683969121762e-01  1.0672986716562154e+00  8.6316996648456668e-01  9.0423219984904635e-01  9.5528534275648525e-01  1.0430629924224097e+00  8.3194953483163236e-01  7.4012626287987227e-01  7.9730952074900652e-01  6.1454025852189109e-01  8.4325515121374039e-01  8.2395261318376090e-01  1.0729252163719725e+00  1.0384707335193084e+00  9.3829476718650617e-01  8.9163400315681418e-01  8.3379098161016840e-01  9.3757433555158654e-01  8.4985795273070630e-01  8.7412301086775768e-01  9.3300459641490052e-01  8.9197127928497144e-01  8.5175734975932937e-01  7.8812612631321499e-01  9.2354691414376211e-01  1.0383158464442304e+00  8.2504439054010570e-01  8.3732337483479780e-01  1.1083891933364274e+00  1.1032609779954499e+00  9.6360026583428882e-01  8.3015349934123395e-01  9.1987841007386761e-01  8.4500550047268275e-01  1.0794819955588388e+00  9.1421419492742761e-01  8.8444614509119157e-01  8.4148949422217634e-01  1.1094531651515054e+00  7.9966230609506050e-01  9.2322072502586083e-01  6.0701733377966816e-01  6.3826815467138653e-01  9.5038496259199046e-01  9.4994312222409316e-01  1.1036256407570966e+00  9.3003483097890149e-01  8.4533836052167022e-01  6.4535365138657030e-01  8.8700147740430080e-01  8.5635347413907947e-01  8.4395847864014961e-01  9.6080446355198512e-01  1.1101135742018036e+00  7.2949830249250514e-01  1.0534074139187750e+00  5.8590694725272163e-01  1.1068465279249824e+00  8.5682442493101041e-01  8.5646124125871581e-01  8.7680711729511918e-01  1.0402836426730864e+00  6.9337206170848875e-01  9.3957513808129534e-01  8.2473486131432294e-01  9.8532101605644240e-01  1.1034766047793116e+00  6.6490903714108274e-01  8.2575416681353631e-01  6.9730950307726403e-01  9.8815225254685568e-01  9.0540184025181036e-01  9.3022189035682878e-01  9.3992319894269583e-01  9.2512196362469179e-01  9.1940604162706685e-01  8.6718777874398900e-01  9.2956691931318125e-01  8.0688153859638834e-01  8.8040185538540494e-01  9.2608965397466669e-01  8.3756583355947456e-01  8.6813914848008666e-01  8.2784662292344191e-01  8.2428946760082544e-01  8.0432062440891339e-01  8.9105170082006213e-01  9.6722346498072864e-01  9.3888366013766011e-01  7.9010904970459772e-01  9.1841473302670895e-01  9.3624744520331848e-01  9.3840540213105117e-01  9.2654353798355993e-01  7.2822266119066681e-01  1.0632341968465051e+00  1.0455262786328605e+00  7.9059283313636897e-01  9.0719156388309952e-01  8.6753932586721894e-01  7.8304564426224277e-01  8.3933229666544440e-01  9.4026458686764236e-01  8.1581483948581779e-01  8.7474210121426366e-01  7.3883034010886650e-01  1.1130221333592250e+00  9.2567348775752456e-01  8.5412300343736947e-01  1.0511567723445059e+00  9.4362231969745591e-01  9.3284298146097000e-01  8.2448346347174006e-01  8.0668657332350890e-01  9.8264810983049533e-01  9.3731056824672621e-01  7.1033179793494672e-01  1.0133968451399817e+00  9.6487523690293353e-01  8.5889426244222311e-01  9.7788506155627386e-01  1.0886630179902281e+00  8.4543094155582588e-01  8.5898218125485870e-01  8.1813320149401902e-01  1.0567549186859417e+00  9.2509007978803104e-01  9.2277863216241574e-01  9.2638663195507998e-01  1.0119849625072064e+00  7.8403538250263327e-01  8.2733893827794003e-01  1.1100436889848067e+00  8.5418505308740567e-01  9.4368296283966668e-01  1.0129574739490605e+00  8.4494369369072286e-01  1.0141771164671434e+00  1.0994611752595858e+00  7.5170370907951256e-01  8.3094872681327470e-01  9.5888117976056597e-01  7.9659291791235709e-01  8.7367837662686942e-01  5.8891224213313087e-01  8.3175879328563362e-01  1.1216296291352534e+00  1.0909391041459049e+00  1.0807313110461563e+00  1.0971883397012907e+00  9.6020499494244005e-01  1.0823243532307942e+00  7.6059559419884371e-01  8.9869145642371639e-01  8.1274759636774185e-01  9.2846872587309326e-01  8.7154543776780902e-01  9.8265257531517913e-01  8.7077517803455418e-01  1.0141914038978477e+00  1.1020824382417476e+00  8.7130573675596856e-01  1.1025424038290761e+00  9.5162187368799056e-01  1.0800302852542043e+00  1.1161305439761906e+00  9.7682746967026790e-01  8.6104771817621706e-01  9.6909273912108573e-01  9.6667989587030667e-01  8.6020433578693523e-01  1.0944259203808731e+00  1.0313860983987069e+00  7.7345167497963763e-01  1.0849750218665664e+00  5.7342973174263445e-01  8.9588973058575849e-01  9.2434978169434490e-01  9.2144199185982545e-01  8.5872357161059032e-01  1.0128940285375461e+00  1.0565604795159071e+00  1.1063922794879557e+00  1.1122200797687349e+00  9.4641709715548916e-01  1.0305806903736590e+00  1.1207923091965422e+00  8.9596238419367158e-01  8.7579669837614993e-01  1.1039764626121702e+00  9.4096353003031297e-01  8.8725846017069476e-01  1.0669133325077005e+00  9.1853828782629920e-01  9.2883355434250336e-01  8.1776815051715535e-01  8.4930131798198050e-01  9.0084895038270929e-01  9.1577314359832940e-01  9.0988816116148863e-01  9.3268137871119960e-01  9.4651867487946661e-01  8.5970228209305444e-01  9.0545956971234209e-01  1.0418048255451289e+00  8.1056458844467105e-01  1.0682469431786930e+00  9.1422745528836602e-01  8.9317112876717897e-01  9.1023597829467628e-01  8.7864790221358957e-01  9.4123723058246223e-01  1.0419574178818585e+00  8.2097113122381016e-01  8.8789851259909025e-01  9.1180458544441068e-01  8.4472658146424506e-01  8.7964887967065031e-01  1.0506400913760381e+00  8.6761850255651674e-01  8.3048357964473918e-01  7.3283038369441189e-01  8.5155141462780470e-01  9.4380867693279313e-01  1.0728966001178633e+00  9.4213220718220958e-01  9.0846014696477062e-01  8.3719850101094750e-01  8.8502333387294585e-01  9.3255318258424014e-01  8.3693574562792350e-01  1.0113682817460092e+00  9.8938591543228660e-01  9.7487328505169157e-01  1.0891060467138818e+00  1.1199975349906324e+00  1.0802292174081367e+00  1.0251602761871539e+00  9.8868589664588158e-01  1.0093418623554786e+00  1.1118656668768805e+00  9.4042258709604831e-01  1.1201359229441148e+00  9.4005760388979143e-01  9.5446665535476360e-01  8.2581408128366240e-01  9.4218314178578932e-01  1.0890563465843990e+00  8.9277605616870614e-01  7.6128769828069787e-01  9.3607629600339270e-01  1.0280994361989642e+00  9.3578298931768200e-01  1.1092786454743717e+00  1.0727354679115266e+00  8.5744607468048761e-01  1.0893403256026579e+00  1.1039515753203850e+00  1.0692409883241907e+00  9.0628397576461883e-01  1.0822385132475800e+00  9.2750599504767051e-01  8.3853701181383289e-01  1.0723994513116044e+00  8.6737838817596991e-01  9.7765911885073287e-01  1.0093654744428482e+00  8.2196582815611674e-01  7.2701139641838552e-01  8.2539976759681122e-01  9.1257167770033099e-01  1.0537538649573772e+00  8.0618883451516987e-01  1.1052464919524074e+00  9.0939221555969862e-01  9.6196271092314756e-01  5.9107875471690308e-01  9.4798638496804366e-01  8.2252376015974227e-01  7.5328256440911845e-01  9.6673899638833394e-01  1.0234126358313473e+00  9.9774504063342673e-01  8.6586083978054007e-01  1.0101347700883099e+00  1.0627877568530586e+00  1.1054420168267054e+00  8.6349740232608707e-01  7.9878839820452285e-01  9.1050923201974021e-01  8.7858690478707768e-01  7.4517165951460829e-01  9.0589200917717028e-01  9.7882083560978250e-01  6.8956982916533627e-01  9.9156694429250003e-01  9.4486467211056191e-01  7.5794241650904692e-01  9.0452504303850934e-01  9.7304681285659922e-01  7.5091500535023892e-01  7.4310472423045615e-01  9.8973068977325496e-01  1.0511444940170629e+00  1.1112908392393235e+00  9.4020565630116604e-01  8.8627778292818482e-01  8.5361784769710269e-01  9.7428483617611616e-01  7.3273185016194708e-01  8.8420507376142343e-01  9.6826914393787178e-01  </DataArray> 
</PointData> 
</Piece>
</UnstructuredGrid>
</VTKFile>