<?xml version="1.0"?>
<VTKFile type="UnstructuredGrid"  version="0.1"  >
<UnstructuredGrid>
<Piece  NumberOfPoints="406" NumberOfCells="722">
<Points>
<DataArray  type="Float64"  NumberOfComponents="3"  format="ascii">-6 -2 0  -6 2 0  6 2 0  6 -2 0  -2.8 0 0  -1.2 0 0  -5.500000000001853 -2 0  -5.000000000003705 -2 0  -4.500000000005556 -2 0  -4.000000000007409 -2 0  -3.50000000000926 -2 0  -3.000000000011112 -2 0  -2.500000000012963 -2 0  -2.000000000014814 -2 0  -1.500000000016665 -2 0  -1.000000000018516 -2 0  -0.5000000000203677 -2 0  -2.204547655537681e-11 -2 0  0.4999999999796305 -2 0  0.9999999999814779 -2 0  1.499999999983327 -2 0  1.999999999985175 -2 0  2.499999999987029 -2 0  2.999999999988882 -2 0  3.499999999990735 -2 0  3.999999999992589 -2 0  4.49999999999444 -2 0  4.999999999996293 -2 0  5.499999999998147 -2 0  6 -1.500000000001387 0  6 -1.000000000002774 0  6 -0.5000000000041616 0  6 -5.505595979116151e-12 0  6 0.4999999999958384 0  6 0.9999999999972258 0  6 1.499999999998613 0  5.500000000001853 2 0  5.000000000003705 2 0  4.500000000005556 2 0  4.000000000007409 2 0  3.50000000000926 2 0  3.000000000011112 2 0  2.500000000012963 2 0  2.000000000014814 2 0  1.500000000016665 2 0  1.000000000018516 2 0  0.5000000000203677 2 0  2.204547655537681e-11 2 0  -0.4999999999796305 2 0  -0.9999999999814779 2 0  -1.499999999983327 2 0  -1.999999999985175 2 0  -2.499999999987029 2 0  -2.999999999988882 2 0  -3.499999999990735 2 0  -3.999999999992589 2 0  -4.49999999999444 2 0  -4.999999999996293 2 0  -5.499999999998147 2 0  -6 1.500000000001387 0  -6 1.000000000002774 0  -6 0.5000000000041616 0  -6 5.505595979116151e-12 0  -6 -0.4999999999958384 0  -6 -0.9999999999972258 0  -6 -1.499999999998613 0  -2.776753453941174 -0.1914525314286965 0  -2.708364820523325 -0.3717785376335722 0  -2.598808598538216 -0.5304981265911284 0  -2.454451797386757 -0.65838709271366 0  -2.283683909636528 -0.748012994147384 0  -2.096429344207466 -0.7941670992780535 0  -1.903570655798842 -0.7941670992788195 0  -1.716316090368095 -0.7480129941491368 0  -1.545548202616307 -0.6583870927157747 0  -1.401191401463757 -0.530498126593356 0  -1.291635179477527 -0.371778537635196 0  -1.223246546059047 -0.1914525314295925 0  -1.223246546058803 0.1914525314286035 0  -1.291635179476594 0.3717785376334188 0  -1.401191401461634 0.5304981265909601 0  -1.545548202612898 0.6583870927134221 0  -1.716316090363093 0.7480129941472402 0  -1.903570655792394 0.7941670992780367 0  -2.096429344201276 0.7941670992788055 0  -2.283683909631911 0.7480129941491347 0  -2.454451797383697 0.6583870927157729 0  -2.598808598536385 0.530498126593196 0  -2.70836482052258 0.3717785376349917 0  -2.776753453940975 0.1914525314295042 0  0.4588466633941945 0.2704149791022056 0  -4.424312812173863 0.2760319703992994 0  -3.803977598762586 -0.6841584599595646 0  -0.1330968762779425 -0.6798763971615133 0  2.451109587541276 3.169800318630399e-13 0  -3.563610936250569 0.5929994091167295 0  4.204753319582647 0.2820669554523581 0  -0.4390897559348154 0.6178095532273566 0  -3.041446812595122 1.175550440315544 0  -0.9622132806516797 1.132103015222783 0  1.069493318942931 -0.773608156980569 0  -4.924330687080279 -0.7127064269610045 0  -3.024693497948964 -1.195179289656404 0  -0.9648749555625579 -1.256854520022574 0  -3.443624282349383 -0.2044158249759613 0  -0.5611500783757608 -0.1747080110423833 0  1.60270880116926 0.7487034276124258 0  3.488352576142236 -0.8228939860777884 0  4.816375011670135 -0.8163750116689444 0  3.243628045085357 0.8578172796997985 0  -4.228632884234073 1.228069101636678 0  -2.365220384435482 -1.356128547810356 0  -1.637465979486354 1.3571687267915 0  -1.642380978561139 -1.359365080147485 0  -2.362988915989869 1.356737096243695 0  -5.134120367293631 0.8356299802910161 0  2.077496878467794 -0.9514080034522553 0  4.960859291178299 0.9608592911785537 0  0.3293120056474302 1.148965409695154 0  -5.157560560414062 0.09447106214747865 0  -3.14779387667392 -0.6330563038825547 0  -3.148134455585257 0.4354299640428653 0  -0.8464439673630421 0.4159277415926296 0  -0.9918125625721008 -0.7191748422889824 0  -4.355349213295776 -1.234510499778242 0  1.582074659164868 -0.06850205959954866 0  2.400584045214166 1.204278622181321 0  5.102831660739063 0.03453404176596848 0  4.083259768981113 1.154272958349666 0  -3.992394834362243 -0.1621022234411988 0  0.4290302718942113 -1.225465289645401 0  -3.681487986394671 -1.310544246656267 0  -3.640289698916164 1.187023654838123 0  0.468851680921228 -0.447055967952278 0  3.315209904217932 0.05667935655546536 0  -2.541160649745046 -1.046980928586996 0  -1.45196684542695 1.044189935346116 0  -2.000844595891861 -1.207983108473125 0  -1.453092202970521 -1.061139264918894 0  -2.000050543938391 1.207806685704176 0  -2.548033154566413 1.04418993534851 0  4.13054585796652 -1.232871249381608 0  -0.3301617095463629 1.221692405319566 0  -0.2880491989587189 -1.359626628407983 0  -0.0758941643813178 0.132275811829787 0  2.826389221580753 -1.233168480096227 0  -2.922070412327736 0.7575752117792038 0  1.003070890178416 1.271347915034201 0  -5.319521816151902 -1.310543894393663 0  -1.070407062963812 0.7877698545098388 0  -4.562499863038985 -0.2302396981426722 0  -3.164226661545047 0.07179577787350272 0  -0.9091377812900333 0.132454654016971 0  4.116029045943655 -0.4851826871817362 0  5.316659189209927 -1.316659189208741 0  -0.9498828454673396 -0.4149758979014553 0  -4.037769805263969 0.6896174350675625 0  1.431664772855882 -1.327784137638992 0  -3.646693623568034 0.1600006358878044 0  -2.878371345483476 -0.7910345833001061 0  1.062603041385242 0.2894765870627741 0  -0.547955103783681 0.1635272504420374 0  -4.804809838419659 1.41016301576038 0  -3.042895319571192 -0.3694931303482478 0  -4.59252578392403 0.792267765362792 0  2.823271260730033 -0.5472430318427347 0  -4.28575390662405 -0.7521491832384866 0  -0.5524005545121191 -0.9037367558558163 0  1.815219025072439 1.388812135783969 0  -1.288398729718543 -0.8178399475601057 0  -5.424388493366639 1.35375165044146 0  -2.256991952837567 -1.049538527273222 0  -1.739586738723494 -1.052327527873255 0  -1.738827359988536 1.050180627239116 0  -2.257795730428802 1.049701225145305 0  -0.62222340523776 -0.5483611729237363 0  2.065188519029698 0.5424877383589943 0  0.1055865106318892 0.7347782870471022 0  1.013082573993895 -0.2061877611231605 0  -5.428323520618333 -0.4386412085227075 0  5.374041502384443 -0.5304401760993408 0  3.435185060219232 -1.377658617395091 0  -3.302377238490527 0.8841390072780534 0  -0.9902123298072768 -0.124175295282554 0  0.7186958547669859 0.8724503317343631 0  2.941237214953417 1.390391532351976 0  4.708037787864423 -1.340276032051348 0  5.395029680982659 1.395029680983341 0  3.591022587550188 1.348260650408605 0  2.759385971589342 0.4857447325740718 0  -0.6832705231418494 0.8879387563573758 0  5.437781298507145 0.5981501503262471 0  -2.698603003287285 1.617130043745112 0  -3.463358189947519 -1.013588318179017 0  1.710866040171871 -0.6978716337870808 0  3.642182982762737 0.4555704362064124 0  -2.699802128031161 -1.618310703146212 0  -1.3020054856637 1.619819977935582 0  -2.000000000004996 -1.566396763829867 0  -1.999999999994794 1.566396763830688 0  -1.247812462071684 -1.595232739507426 0  4.59429106759859 1.420052135572917 0  0.9448382581152466 -1.440259145469251 0  -0.116376100998861 -0.2606209011258676 0  -4.774521510507792 0.4245390872783272 0  -2.983910172370106 -0.1208000607277856 0  -3.353983741142061 1.576062863985777 0  -5.473352579109997 0.4917619255280954 0  -4.828650470275986 -1.493148538517745 0  4.639973657165532 -0.2833178611094909 0  -2.660279445404468 0.7699932347178977 0  -1.335045190775955 0.7744876666923373 0  -3.395669172689978 0.2584951122361346 0  2.279110606119369 -1.465899541383697 0  4.734317729212562 0.4520963557364723 0  -0.6334913028224612 1.584213953723378 0  2.121854101359879 -0.4289611127787379 0  -3.474459720833238 -0.4977581316675216 0  -1.066539898844178 0.3411379476537602 0  -3.361849707555382 -1.611428512420182 0  -4.099039818938317 0.3306400369415774 0  -2.935324777364672 0.354721898811665 0  -3.973578595052027 1.482940358734671 0  3.784450148635689 -0.0702780807301525 0  -1.191348122671212 -0.5614501189722798 0  -2.838672605956353 -0.5493179047027598 0  -1.184983441257359 0.5617520886612424 0  -2.811184099847449 0.5574240755049175 0  0.2702752249355158 -0.8003643570420809 0  -0.6945947797857237 -1.593893965175195 0  0.001175881878679056 1.504521009023778 0  0.6072931735145096 1.501814722697789 0  -3.991896293645949 -1.047264188412552 0  -3.734097395159253 -0.3261671578666079 0  -5.539652387691843 -0.8857154182585802 0  -4.395061924111849 1.563293728588296 0  0.2258327611651416 -0.08745142624872881 0  -3.774816634825771 0.8676973328379478 0  2.208484493569073 1.6256686312487 0  0.1309939514660535 -1.566169703482512 0  -5.551414360955331 0.9459842275970113 0  -4.04734138658365 -1.51163984963472 0  -4.947145019546805 -0.3299925153029702 0  4.320410447198621 0.6970857582435144 0  -4.707557346727139 -1.000565649857444 0  1.353711468973986 1.582551234446199 0  1.674156483558973 0.3266252271732694 0  -4.039105552973997 -0.4537604746027087 0  0.01051727619263377 -1.088858357362194 0  -0.2234942609176301 0.8619127912343982 0  -2.95903482691863 0.1219373374385197 0  -4.682467695920681 0.0804575682243254 0  5.535750224195656 -0.1525732643419722 0  -4.290083947414376 -0.0005258314026840717 0  1.136102562417988 0.7655312464039168 0  -2.816589394567214 0.9927597419785312 0  -2.645374456162409 -0.7645902451387543 0  4.18414576655837 1.624276131878667 0  0.7127337088822223 -0.9006358935856398 0  1.972418102153911 0.9727040774616764 0  -2.42199174813501 0.8591219219254587 0  -2.418604734200992 -0.8552987735117754 0  -5.573597213364169 -0.03612430678117123 0  2.024792870869397 0.05574071630590883 0  -1.578875191508968 0.861424470724936 0  -1.54706008231699 -0.8630049102346303 0  3.848662181064435 -1.569601980075533 0  -2.000000000003871 -0.9746445732264465 0  -1.99999999
[...]
<PointData  Scalars="f_24"> 
<DataArray  type="Float64"  Name="f_24"  format="ascii">8.1567201043143067e-01  8.1567201043143067e-01  0.0000000000000000e+00  0.0000000000000000e+00  3.3163374741116575e-01  5.8258291006234564e-01  7.6483236814551847e-01  7.1517550633885041e-01  6.6461935471506772e-01  6.1475770097145188e-01  5.6506469366140211e-01  5.1883209932459873e-01  4.8287602385023159e-01  4.9443663736362176e-01  5.4306408003658102e-01  5.8324951523932489e-01  5.8919346920635496e-01  5.6978327468779488e-01  5.3446636266169389e-01  4.9225671903046037e-01  4.4684970470941082e-01  3.9944082297385930e-01  3.5015878744723833e-01  3.0155529281576809e-01  2.5147885696843336e-01  2.0144052880548016e-01  1.5117417708439626e-01  1.0080412998697431e-01  5.0860566433135412e-02  0.0000000000000000e+00  0.0000000000000000e+00  0.0000000000000000e+00  0.0000000000000000e+00  0.0000000000000000e+00  0.0000000000000000e+00  0.0000000000000000e+00  5.0826165935528342e-02  1.0093016946802578e-01  1.5110655656261662e-01  2.0170687370721335e-01  2.5146765014253519e-01  3.0127741786861206e-01  3.5059215907225461e-01  3.9942756749348074e-01  4.4668754653160347e-01  4.9233515837977238e-01  5.3439133722091992e-01  5.6938422633464048e-01  5.8982916714322076e-01  5.8269987458440786e-01  5.4366357209226779e-01  4.9435993482915719e-01  4.8285362892917183e-01  5.1888801545074337e-01  5.6491657949359242e-01  6.1458633202848123e-01  6.6496236034541845e-01  7.1483594654747540e-01  7.6496070751481637e-01  8.1567201043143067e-01  8.1567201043143067e-01  8.1567201043143067e-01  8.1567201043143067e-01  8.1567201043143067e-01  8.1567201043143067e-01  8.1567201043143067e-01  3.3034562013788765e-01  3.2697211657231956e-01  3.4512994726360519e-01  3.9156614651092397e-01  4.5519215287533887e-01  5.2961894763181228e-01  5.9331139676436984e-01  6.3201274513328809e-01  6.3728484577642042e-01  6.2146751519190757e-01  6.0090597089523057e-01  5.8707904696824798e-01  5.8697475795025034e-01  6.0078597672939449e-01  6.2147616200884725e-01  6.3810716409305157e-01  6.3260213127667952e-01  5.9317526159333356e-01  5.2964755423832333e-01  4.5556867559111852e-01  3.9095930563640025e-01  3.4552947675465884e-01  3.2878870923832421e-01  3.2876407589561091e-01  5.1887275982768089e-01  6.5006620241980728e-01  5.8522055860240718e-01  5.5498161336179275e-01  3.5133570409120041e-01  5.5053186677058830e-01  1.8007840124835425e-01  5.6599319817525917e-01  5.2678937887594179e-01  5.7137509407158238e-01  4.7735682571477572e-01  7.0609957955296088e-01  5.2662973554240344e-01  5.6944660231134336e-01  5.1413430618280365e-01  5.6806875400351775e-01  4.3128778005683688e-01  2.5156550323205845e-01  1.1909512854238315e-01  2.7579175775575282e-01  6.3890890618484253e-01  4.9324708254746352e-01  5.2440531041667560e-01  5.2388071858896712e-01  4.9328801995767635e-01  7.2792303848223416e-01  3.8850755491590550e-01  1.0464304866867198e-01  5.3618592114019337e-01  7.2873941480204885e-01  4.8996663863244011e-01  4.6774458169891597e-01  5.7874263513544355e-01  5.8249749416487717e-01  6.5141980884911554e-01  4.3070389618190158e-01  3.5857457219394107e-01  9.0182287837541980e-02  1.9268194105894143e-01  5.9723855958941918e-01  5.3033458579890658e-01  5.8787660195844238e-01  5.8271888333691613e-01  5.1939287639458243e-01  2.6798368452361310e-01  4.7415923323495857e-01  5.6106228126615743e-01  4.9621250330410949e-01  5.5948998795642901e-01  4.9628147617118057e-01  4.7370318894634472e-01  1.8794305381425733e-01  5.6850108760299101e-01  5.6900203608990418e-01  5.4849695170819213e-01  3.1721340802585118e-01  4.6691239199495360e-01  4.8653334660397096e-01  7.4729812386072481e-01  5.8170703032499127e-01  6.6527403272433161e-01  4.4967455536839390e-01  5.7889646062988720e-01  1.8899644265600035e-01  6.8995542236580124e-02  5.8246306218047261e-01  6.1181628644309227e-01  4.4962749287196047e-01  5.4760759643434287e-01  4.6586788222385928e-01  4.7474683767081255e-01  5.6764095172110318e-01  6.9600544280782528e-01  4.3508599899412587e-01  6.7228744683903774e-01  3.1628167111069261e-01  6.4004338110202585e-01  5.7061038183982071e-01  4.1462080412022695e-01  5.8934589802792892e-01  7.5782438849634359e-01  4.7432970550608961e-01  5.3960870795112759e-01  5.4004848892608359e-01  4.7432813188199668e-01  5.7159414629820982e-01  3.8829846038694676e-01  5.4423364042731448e-01  4.7833331365794729e-01  7.5746845921812678e-01  6.2995111365391307e-02  2.5738381104744645e-01  5.3414554701711836e-01  5.8124758554221811e-01  5.0594699478960192e-01  3.0620083819394295e-01  1.3011252165533349e-01  6.1047420492232309e-02  2.4184826113789545e-01  3.2237622394636167e-01  5.7316991436883413e-01  5.6581795071084226e-02  5.1251063289297016e-01  5.5991299571123876e-01  4.2138660270647527e-01  2.3599661968783850e-01  5.1253144406708484e-01  5.5185417719598406e-01  5.0255791147922180e-01  5.0258370024706600e-01  5.5618102378626522e-01  1.4151250398374762e-01  4.9255906453559561e-01  5.5068396778636186e-01  6.8910661415361940e-01  3.9693073839269999e-01  5.6006204211128641e-01  7.6198191430953044e-01  6.9838864894474384e-01  1.3659123833054618e-01  4.2738438722503108e-01  5.9693966500873263e-01  5.0815043977491781e-01  3.7075297949083746e-01  1.2719682108891278e-01  5.7657955417885032e-01  3.8269015401748741e-01  5.3272819976141395e-01  5.8718368092584228e-01  5.6003544049523046e-01  6.1238089300598952e-01  4.0149813168132725e-01  6.1538565281080171e-01  2.2176578257060989e-01  5.9716302582643688e-01  4.0844363371993964e-01  5.9726295391466999e-01  4.0176558234822685e-01  5.3593168080998954e-01  5.7751233291170057e-01  5.5847334309651120e-01  5.1954089609866416e-01  6.1408750263466805e-01  5.6457089141441075e-01  7.6916590152477571e-01  6.5559308187583953e-01  5.3256989028053592e-01  5.8730562863838831e-01  3.7795905869288055e-01  5.5276789132959081e-01  7.7034802612577646e-01  6.2233880599578284e-01  7.0707239978145764e-01  1.6868248638338484e-01  6.8546242278344771e-01  4.5777434954093210e-01  4.2322082053297305e-01  6.0713524015996245e-01  5.5363465656526067e-01  5.6099436531095548e-01  3.8805921032026969e-01  6.7818710317589614e-01  4.6677095829265110e-02  6.3348047647525751e-01  4.7182770578708982e-01  4.8890055208082484e-01  4.2430869684503825e-01  1.8276396234145320e-01  5.0677952645586199e-01  3.9852533711574756e-01  4.3934638819558652e-01  4.3951756754773802e-01  7.7230459974775312e-01  3.9108558341006927e-01  5.9504500165963303e-01  5.9419222053356979e-01  2.1634049056246704e-01  5.1828231237242550e-01  5.1832339090106039e-01  5.0906587012415050e-01  2.3575351336708997e-01  5.7218648298764996e-01  5.0330328121293066e-01  3.9725155187874367e-02  4.1914827238907437e-02  3.1655040967284809e-01  5.5558264536665114e-01  5.7180058195695893e-01  3.4578303371498809e-01  1.6344395461691125e-01  1.7587426358963951e-01  4.2072245322692642e-01  5.3997514584025141e-01  4.8768176455810397e-01  3.1032747741226957e-01  5.0945790332030472e-01  4.9321199138853727e-01  2.0971307841776995e-01  2.7267712698402857e-01  1.0089059756129942e-01  5.5968128685883189e-01  5.5216040787781451e-01  5.7431475057813697e-01  5.5364810884157412e-01  3.2566021576816689e-01  5.1940666053275386e-01  5.2261016994867371e-01  5.7404477411237520e-01  7.7472510379783655e-01  2.8316696850746242e-01  5.7570647228220440e-01  6.9690203013275531e-01  5.5449462786929449e-01  5.7290270669457988e-01  6.6088624362683523e-01  2.9376585699866337e-01  5.7693794362279172e-01  4.6426511253337926e-01  4.9766498577884960e-01  5.2285650843322018e-01  5.2332369807425971e-01  4.9767963664890058e-01  4.4722065097985436e-01  5.5432787483422030e-01  2.7678082526480713e-01  5.7351360070408186e-01  3.9924678952140392e-02  7.2461197939996025e-01  4.3827234458995318e-01  5.9054191248412280e-01  5.1316858728144177e-01  4.5477111101219475e-01  1.4461510693248963e-01  5.1168156760656147e-01  4.9480283409547332e-01  7.3104387951512950e-01  6.7302326994184902e-01  7.3691382945100337e-01  5.0354635932464820e-01  4.6461809416489125e-01  5.3684150061863056e-01  2.2874920442964908e-01  5.7042236442662120e-01  4.4974964000428058e-01  6.4545877775983429e-01  5.6305853424764529e-01  5.8294405798076343e-01  4.2501239910537378e-02  9.5275511970121532e-02  5.8985699461274665e-01  5.7362275622884673e-01  9.7888042447458551e-02  2.8942506880511526e-01  7.2508152431748496e-01  3.3588493201541647e-01  4.9916302214338037e-01  5.4999236298421017e-01  6.1216321871594470e-01  7.8492240426783189e-01  5.7492991366230273e-01  6.4178640833919109e-01  8.3294221062460830e-02  1.4181459157865831e-01  3.7442775260556521e-01  5.7361524424171528e-01  5.2327986735664556e-01  4.9372587249628802e-01  7.7971353675122956e-01  2.2142569827681691e-01  1.7318135025994452e-01  5.8702511407509117e-01  4.9085692050177671e-01  7.2360258406633660e-01  3.4239393415468666e-02  5.7434144011737231e-01  3.4355515796532488e-01  3.5358376962290067e-01  5.6103509160902076e-01  4.5856395331830763e-01  4.4651328920730865e-01  4.7615913693914236e-01  5.5567837489918748e-01  7.8920658661155907e-01  5.8461051764974459e-01  5.3541968906776238e-01  5.8624279927686740e-01  6.3549764490900196e-01  4.1124492469041846e-01  2.2511913639324710e-01  5.6855761996490317e-01  2.9386756130287926e-02  7.8942423771365466e-01  7.3460058926184790e-01  4.2214365944908749e-01  5.4443316355359705e-01  5.5940282721072987e-01  6.9165448600743218e-01  5.4352148671989853e-01  5.1464594000578523e-01  5.8663073330427207e-01  6.6823689498854000e-01  2.0427222318255836e-01  3.5879298936407722e-01  9.1934391943356605e-02  6.1360942667446805e-01  5.3536919722233056e-01  5.6513906655115098e-01  5.6386272605932775e-01  7.0085149840734529e-01  2.7591353910943162e-01  4.8060779049584623e-01  4.8084143294050369e-01  5.8060182499452273e-01  5.8114697111237623e-01  4.5040695047228108e-01  4.1269758842820831e-01  </DataArray> 
</PointData> 
</Piece>
</UnstructuredGrid>
</VTKFile>