<?xml version="1.0"?>
<VTKFile type="UnstructuredGrid"  version="0.1"  >
<UnstructuredGrid>
<Piece  NumberOfPoints="406" NumberOfCells="722">
<Points>
<DataArray  type="Float64"  NumberOfComponents="3"  format="ascii">-6 -2 0  -6 2 0  6 2 0  6 -2 0  -2.8 0 0  -1.2 0 0  -5.500000000001853 -2 0  -5.000000000003705 -2 0  -4.500000000005556 -2 0  -4.000000000007409 -2 0  -3.50000000000926 -2 0  -3.000000000011112 -2 0  -2.500000000012963 -2 0  -2.000000000014814 -2 0  -1.500000000016665 -2 0  -1.000000000018516 -2 0  -0.5000000000203677 -2 0  -2.204547655537681e-11 -2 0  0.4999999999796305 -2 0  0.9999999999814779 -2 0  1.499999999983327 -2 0  1.999999999985175 -2 0  2.499999999987029 -2 0  2.999999999988882 -2 0  3.499999999990735 -2 0  3.999999999992589 -2 0  4.49999999999444 -2 0  4.999999999996293 -2 0  5.499999999998147 -2 0  6 -1.500000000001387 0  6 -1.000000000002774 0  6 -0.5000000000041616 0  6 -5.505595979116151e-12 0  6 0.4999999999958384 0  6 0.9999999999972258 0  6 1.499999999998613 0  5.500000000001853 2 0  5.000000000003705 2 0  4.500000000005556 2 0  4.000000000007409 2 0  3.50000000000926 2 0  3.000000000011112 2 0  2.500000000012963 2 0  2.000000000014814 2 0  1.500000000016665 2 0  1.000000000018516 2 0  0.5000000000203677 2 0  2.204547655537681e-11 2 0  -0.4999999999796305 2 0  -0.9999999999814779 2 0  -1.499999999983327 2 0  -1.999999999985175 2 0  -2.499999999987029 2 0  -2.999999999988882 2 0  -3.499999999990735 2 0  -3.999999999992589 2 0  -4.49999999999444 2 0  -4.999999999996293 2 0  -5.499999999998147 2 0  -6 1.500000000001387 0  -6 1.000000000002774 0  -6 0.5000000000041616 0  -6 5.505595979116151e-12 0  -6 -0.4999999999958384 0  -6 -0.9999999999972258 0  -6 -1.499999999998613 0  -2.776753453941174 -0.1914525314286965 0  -2.708364820523325 -0.3717785376335722 0  -2.598808598538216 -0.5304981265911284 0  -2.454451797386757 -0.65838709271366 0  -2.283683909636528 -0.748012994147384 0  -2.096429344207466 -0.7941670992780535 0  -1.903570655798842 -0.7941670992788195 0  -1.716316090368095 -0.7480129941491368 0  -1.545548202616307 -0.6583870927157747 0  -1.401191401463757 -0.530498126593356 0  -1.291635179477527 -0.371778537635196 0  -1.223246546059047 -0.1914525314295925 0  -1.223246546058803 0.1914525314286035 0  -1.291635179476594 0.3717785376334188 0  -1.401191401461634 0.5304981265909601 0  -1.545548202612898 0.6583870927134221 0  -1.716316090363093 0.7480129941472402 0  -1.903570655792394 0.7941670992780367 0  -2.096429344201276 0.7941670992788055 0  -2.283683909631911 0.7480129941491347 0  -2.454451797383697 0.6583870927157729 0  -2.598808598536385 0.530498126593196 0  -2.70836482052258 0.3717785376349917 0  -2.776753453940975 0.1914525314295042 0  0.4588466633941945 0.2704149791022056 0  -4.424312812173863 0.2760319703992994 0  -3.803977598762586 -0.6841584599595646 0  -0.1330968762779425 -0.6798763971615133 0  2.451109587541276 3.169800318630399e-13 0  -3.563610936250569 0.5929994091167295 0  4.204753319582647 0.2820669554523581 0  -0.4390897559348154 0.6178095532273566 0  -3.041446812595122 1.175550440315544 0  -0.9622132806516797 1.132103015222783 0  1.069493318942931 -0.773608156980569 0  -4.924330687080279 -0.7127064269610045 0  -3.024693497948964 -1.195179289656404 0  -0.9648749555625579 -1.256854520022574 0  -3.443624282349383 -0.2044158249759613 0  -0.5611500783757608 -0.1747080110423833 0  1.60270880116926 0.7487034276124258 0  3.488352576142236 -0.8228939860777884 0  4.816375011670135 -0.8163750116689444 0  3.243628045085357 0.8578172796997985 0  -4.228632884234073 1.228069101636678 0  -2.365220384435482 -1.356128547810356 0  -1.637465979486354 1.3571687267915 0  -1.642380978561139 -1.359365080147485 0  -2.362988915989869 1.356737096243695 0  -5.134120367293631 0.8356299802910161 0  2.077496878467794 -0.9514080034522553 0  4.960859291178299 0.9608592911785537 0  0.3293120056474302 1.148965409695154 0  -5.157560560414062 0.09447106214747865 0  -3.14779387667392 -0.6330563038825547 0  -3.148134455585257 0.4354299640428653 0  -0.8464439673630421 0.4159277415926296 0  -0.9918125625721008 -0.7191748422889824 0  -4.355349213295776 -1.234510499778242 0  1.582074659164868 -0.06850205959954866 0  2.400584045214166 1.204278622181321 0  5.102831660739063 0.03453404176596848 0  4.083259768981113 1.154272958349666 0  -3.992394834362243 -0.1621022234411988 0  0.4290302718942113 -1.225465289645401 0  -3.681487986394671 -1.310544246656267 0  -3.640289698916164 1.187023654838123 0  0.468851680921228 -0.447055967952278 0  3.315209904217932 0.05667935655546536 0  -2.541160649745046 -1.046980928586996 0  -1.45196684542695 1.044189935346116 0  -2.000844595891861 -1.207983108473125 0  -1.453092202970521 -1.061139264918894 0  -2.000050543938391 1.207806685704176 0  -2.548033154566413 1.04418993534851 0  4.13054585796652 -1.232871249381608 0  -0.3301617095463629 1.221692405319566 0  -0.2880491989587189 -1.359626628407983 0  -0.0758941643813178 0.132275811829787 0  2.826389221580753 -1.233168480096227 0  -2.922070412327736 0.7575752117792038 0  1.003070890178416 1.271347915034201 0  -5.319521816151902 -1.310543894393663 0  -1.070407062963812 0.7877698545098388 0  -4.562499863038985 -0.2302396981426722 0  -3.164226661545047 0.07179577787350272 0  -0.9091377812900333 0.132454654016971 0  4.116029045943655 -0.4851826871817362 0  5.316659189209927 -1.316659189208741 0  -0.9498828454673396 -0.4149758979014553 0  -4.037769805263969 0.6896174350675625 0  1.431664772855882 -1.327784137638992 0  -3.646693623568034 0.1600006358878044 0  -2.878371345483476 -0.7910345833001061 0  1.062603041385242 0.2894765870627741 0  -0.547955103783681 0.1635272504420374 0  -4.804809838419659 1.41016301576038 0  -3.042895319571192 -0.3694931303482478 0  -4.59252578392403 0.792267765362792 0  2.823271260730033 -0.5472430318427347 0  -4.28575390662405 -0.7521491832384866 0  -0.5524005545121191 -0.9037367558558163 0  1.815219025072439 1.388812135783969 0  -1.288398729718543 -0.8178399475601057 0  -5.424388493366639 1.35375165044146 0  -2.256991952837567 -1.049538527273222 0  -1.739586738723494 -1.052327527873255 0  -1.738827359988536 1.050180627239116 0  -2.257795730428802 1.049701225145305 0  -0.62222340523776 -0.5483611729237363 0  2.065188519029698 0.5424877383589943 0  0.1055865106318892 0.7347782870471022 0  1.013082573993895 -0.2061877611231605 0  -5.428323520618333 -0.4386412085227075 0  5.374041502384443 -0.5304401760993408 0  3.435185060219232 -1.377658617395091 0  -3.302377238490527 0.8841390072780534 0  -0.9902123298072768 -0.124175295282554 0  0.7186958547669859 0.8724503317343631 0  2.941237214953417 1.390391532351976 0  4.708037787864423 -1.340276032051348 0  5.395029680982659 1.395029680983341 0  3.591022587550188 1.348260650408605 0  2.759385971589342 0.4857447325740718 0  -0.6832705231418494 0.8879387563573758 0  5.437781298507145 0.5981501503262471 0  -2.698603003287285 1.617130043745112 0  -3.463358189947519 -1.013588318179017 0  1.710866040171871 -0.6978716337870808 0  3.642182982762737 0.4555704362064124 0  -2.699802128031161 -1.618310703146212 0  -1.3020054856637 1.619819977935582 0  -2.000000000004996 -1.566396763829867 0  -1.999999999994794 1.566396763830688 0  -1.247812462071684 -1.595232739507426 0  4.59429106759859 1.420052135572917 0  0.9448382581152466 -1.440259145469251 0  -0.116376100998861 -0.2606209011258676 0  -4.774521510507792 0.4245390872783272 0  -2.983910172370106 -0.1208000607277856 0  -3.353983741142061 1.576062863985777 0  -5.473352579109997 0.4917619255280954 0  -4.828650470275986 -1.493148538517745 0  4.639973657165532 -0.2833178611094909 0  -2.660279445404468 0.7699932347178977 0  -1.335045190775955 0.7744876666923373 0  -3.395669172689978 0.2584951122361346 0  2.279110606119369 -1.465899541383697 0  4.734317729212562 0.4520963557364723 0  -0.6334913028224612 1.584213953723378 0  2.121854101359879 -0.4289611127787379 0  -3.474459720833238 -0.4977581316675216 0  -1.066539898844178 0.3411379476537602 0  -3.361849707555382 -1.611428512420182 0  -4.099039818938317 0.3306400369415774 0  -2.935324777364672 0.354721898811665 0  -3.973578595052027 1.482940358734671 0  3.784450148635689 -0.0702780807301525 0  -1.191348122671212 -0.5614501189722798 0  -2.838672605956353 -0.5493179047027598 0  -1.184983441257359 0.5617520886612424 0  -2.811184099847449 0.5574240755049175 0  0.2702752249355158 -0.8003643570420809 0  -0.6945947797857237 -1.593893965175195 0  0.001175881878679056 1.504521009023778 0  0.6072931735145096 1.501814722697789 0  -3.991896293645949 -1.047264188412552 0  -3.734097395159253 -0.3261671578666079 0  -5.539652387691843 -0.8857154182585802 0  -4.395061924111849 1.563293728588296 0  0.2258327611651416 -0.08745142624872881 0  -3.774816634825771 0.8676973328379478 0  2.208484493569073 1.6256686312487 0  0.1309939514660535 -1.566169703482512 0  -5.551414360955331 0.9459842275970113 0  -4.04734138658365 -1.51163984963472 0  -4.947145019546805 -0.3299925153029702 0  4.320410447198621 0.6970857582435144 0  -4.707557346727139 -1.000565649857444 0  1.353711468973986 1.582551234446199 0  1.674156483558973 0.3266252271732694 0  -4.039105552973997 -0.4537604746027087 0  0.01051727619263377 -1.088858357362194 0  -0.2234942609176301 0.8619127912343982 0  -2.95903482691863 0.1219373374385197 0  -4.682467695920681 0.0804575682243254 0  5.535750224195656 -0.1525732643419722 0  -4.290083947414376 -0.0005258314026840717 0  1.136102562417988 0.7655312464039168 0  -2.816589394567214 0.9927597419785312 0  -2.645374456162409 -0.7645902451387543 0  4.18414576655837 1.624276131878667 0  0.7127337088822223 -0.9006358935856398 0  1.972418102153911 0.9727040774616764 0  -2.42199174813501 0.8591219219254587 0  -2.418604734200992 -0.8552987735117754 0  -5.573597213364169 -0.03612430678117123 0  2.024792870869397 0.05574071630590883 0  -1.578875191508968 0.861424470724936 0  -1.54706008231699 -0.8630049102346303 0  3.848662181064435 -1.569601980075533 0  -2.000000000003871 -0.9746445732264465 0  -1.99999999
[...]
<PointData  Scalars="f_24"> 
<DataArray  type="Float64"  Name="f_24"  format="ascii">7.6037470248835148e-01  7.6037470248835148e-01  0.0000000000000000e+00  0.0000000000000000e+00  2.8992028784837331e-01  5.5368033773355252e-01  7.1176838694948119e-01  6.6427132880684092e-01  6.1601804453373343e-01  5.6848815710523282e-01  5.2121470884865995e-01  4.7770755948385329e-01  4.4469054083149312e-01  4.5898937937513484e-01  5.0999420221575553e-01  5.5236092138016357e-01  5.6054368929523313e-01  5.4331943582634190e-01  5.1028523262900671e-01  4.7030037025915489e-01  4.2709164415687706e-01  3.8186013635048754e-01  3.3485495382641767e-01  2.8837969180453532e-01  2.4049752950149200e-01  1.9267941430048868e-01  1.4461259959167352e-01  9.6433781932131854e-02  4.8638932118503175e-02  0.0000000000000000e+00  0.0000000000000000e+00  0.0000000000000000e+00  0.0000000000000000e+00  0.0000000000000000e+00  0.0000000000000000e+00  0.0000000000000000e+00  4.8607513861206771e-02  9.6543544389507921e-02  1.4452984281152109e-01  1.9290760723522996e-01  2.4050183248661461e-01  2.8811961399523472e-01  3.3523623115363760e-01  3.8185750834161647e-01  4.2696686808566425e-01  4.7038740848063559e-01  5.1021218527198431e-01  5.4295399748364270e-01  5.6116874720967558e-01  5.5180345718436163e-01  5.1059620414278384e-01  4.5891351008558762e-01  4.4466722855320429e-01  4.7776897588354184e-01  5.2106499475578649e-01  5.6830943743398288e-01  6.1630227481955546e-01  6.6398508952213975e-01  7.1188487460174821e-01  7.6037470248835148e-01  7.6037470248835148e-01  7.6037470248835148e-01  7.6037470248835148e-01  7.6037470248835148e-01  7.6037470248835148e-01  7.6037470248835148e-01  2.8873568998299237e-01  2.8577766422746004e-01  3.0472991567789370e-01  3.5236937791060802e-01  4.1754142102196573e-01  4.9363043082265795e-01  5.5890685687465014e-01  5.9903741453858705e-01  6.0559732207624573e-01  5.9089844650014134e-01  5.7122612822689045e-01  5.5797449475532701e-01  5.5787925310268671e-01  5.7110857119829062e-01  5.9089781953382980e-01  6.0639618715866705e-01  5.9961997157479530e-01  5.5876837969309379e-01  4.9365710991456768e-01  4.1791598170016642e-01  3.5176878526069882e-01  3.0512747072295587e-01  2.8758566555928988e-01  2.8716447160849939e-01  4.9470151133877593e-01  6.0161509627355803e-01  5.3948540957154878e-01  5.2826725624666249e-01  3.3577854328213136e-01  5.0580339399794216e-01  1.7220263901902894e-01  5.3821632339499792e-01  4.8491401911422377e-01  5.4131206152306588e-01  4.5576799141432561e-01  6.5550163983999510e-01  4.8486372103033881e-01  5.3922072690359468e-01  4.6981669299598500e-01  5.4019388700388915e-01  4.1201998813406721e-01  2.4055091660817035e-01  1.1390574812580807e-01  2.6370158835367241e-01  5.9143030732190982e-01  4.5566930348006468e-01  4.9123454760017482e-01  4.9068723288016969e-01  4.5572431384779044e-01  6.7641252736356927e-01  3.7130424215723318e-01  1.0008160063139525e-01  5.1131012860586278e-01  6.7711245008781262e-01  4.4709446501238642e-01  4.2474356390755430e-01  5.4995864878796874e-01  5.5292150535313600e-01  6.0338013983262950e-01  4.1135783217833538e-01  3.4278747337809823e-01  8.6246710177184480e-02  1.8426771243368059e-01  5.5062670164217131e-01  5.0589114152661896e-01  5.4291789427890547e-01  5.3789475148003441e-01  4.9523899578137520e-01  2.5620941357024885e-01  4.3527192523441133e-01  5.2923617065066586e-01  4.6117287685413005e-01  5.2763724241792309e-01  4.6124529537382702e-01  4.3476023544716652e-01  1.7974528146493188e-01  5.4075020084318470e-01  5.4139530909119993e-01  5.2220672964825166e-01  3.0329559607128204e-01  4.2527727677926558e-01  4.6462536098649165e-01  6.9499367076401064e-01  5.5176999506865665e-01  6.1622714409520174e-01  4.0648515836829668e-01  5.5023694659303679e-01  1.8073343580073142e-01  6.6002856816124597e-02  5.5343459562625186e-01  5.6506710920703795e-01  4.2958935200688902e-01  5.0244388893642289e-01  4.2450617505887167e-01  4.5315266131460130e-01  5.3980002578453701e-01  6.4597875158187323e-01  3.9249939419927554e-01  6.2313951555364844e-01  3.0235148595545708e-01  5.9222985640297032e-01  5.4220783354988766e-01  3.9626727013276264e-01  5.5857643411534696e-01  7.0506014683173412e-01  4.3753036918300392e-01  5.0631724958118030e-01  5.0676060995139605e-01  4.3752156498103401e-01  5.4330005478758836e-01  3.7105157499031977e-01  5.1847617416712688e-01  4.5652700780471711e-01  7.0466534317273810e-01  6.0250107698873186e-02  2.4613599002068445e-01  4.9072519078810073e-01  5.5244734951013785e-01  4.8282343835991565e-01  2.9278568894900669e-01  1.2444762243659058e-01  5.8393355891242157e-02  2.3127710377116578e-01  3.0816641529068672e-01  5.4433195236548093e-01  5.4114970515621225e-02  4.7291740737055715e-01  5.1582799144118519e-01  4.0258822295308067e-01  2.2565395604589555e-01  4.7293341972990188e-01  5.1988210434960558e-01  4.6717468560163861e-01  4.6719829831414578e-01  5.2447710749877463e-01  1.3534562003260453e-01  4.7037857543568679e-01  5.2421816504766650e-01  6.3914721158601950e-01  3.5449958761088679e-01  5.1683895109414646e-01  7.0898277832110290e-01  6.4826905739413510e-01  1.3062594918823028e-01  3.8729565190896154e-01  5.6603780005362170e-01  4.6404098096417501e-01  3.5443424047217498e-01  1.2164426838017231e-01  5.4745999807125911e-01  3.6569215836312485e-01  4.8835188022008802e-01  5.5800764103558853e-01  5.1679318116288286e-01  5.6532492588773842e-01  3.5938134301758279e-01  5.6912986131933485e-01  2.1204832002453136e-01  5.6723290693807593e-01  3.6697377387066049e-01  5.6734602274714219e-01  3.6044820714439263e-01  5.1085229926955877e-01  5.4811506815366362e-01  5.3210635255871153e-01  4.9587173747703678e-01  5.6762332481328093e-01  5.1906027780306097e-01  7.1588276564873476e-01  6.0741910353590356e-01  5.0745463399150514e-01  5.4174633244034121e-01  3.6133024158849486e-01  5.2696413959069310e-01  7.1701483945019728e-01  5.7575479540939534e-01  6.5636241391669170e-01  1.6131214559698254e-01  6.3583466196466731e-01  4.3739309870949833e-01  4.0427303330747466e-01  5.6034888307642328e-01  5.2736503988448324e-01  5.3383603592217477e-01  3.4573311340138757e-01  6.2861988819049797e-01  4.4641023398047576e-02  5.8559934400981173e-01  4.5053277002105846e-01  4.4813453840219020e-01  3.8431016634343690e-01  1.7478340401100331e-01  4.8361991836262502e-01  3.8086641681598155e-01  4.0105239584698082e-01  4.0124016145835323e-01  7.1886599083761460e-01  3.7366655542724531e-01  5.6280274882490877e-01  5.6213000534856084e-01  2.0690637681382953e-01  4.8331299075025208e-01  4.8335154355967908e-01  4.6896957718762411e-01  2.2543873939247003e-01  5.4139856397916020e-01  4.8006665956660416e-01  3.7996398092905129e-02  4.0091802417442340e-02  3.0264244606699769e-01  5.2415132794620611e-01  5.4121032112568601e-01  3.3054778953562325e-01  1.5631087948133079e-01  1.6820862945248996e-01  4.0211043964491405e-01  5.1441559262339032e-01  4.4413433709122696e-01  2.9664618484766286e-01  4.6935975627471915e-01  4.5040346099397827e-01  2.0054765282190593e-01  2.6070235609800196e-01  9.6499531895919921e-02  5.3249026810691502e-01  5.2561134883169369e-01  5.4597767146030340e-01  5.2210178956822939e-01  3.1139833392276089e-01  4.7686019425096737e-01  4.9884357859962442e-01  5.2835057433846389e-01  7.2122021008077697e-01  2.7072077749619489e-01  5.4722220933063082e-01  6.4677353928764936e-01  5.1108966929970923e-01  5.4407302901271448e-01  6.1247099566287344e-01  2.8087433540224638e-01  5.4804898940859359e-01  4.4357322691233070e-01  4.6042627544119724e-01  4.8901909240974351e-01  4.8952682165483968e-01  4.6044199347505321e-01  4.2726398824788797e-01  5.1112905224349459e-01  2.6468506486391885e-01  5.4435270645162426e-01  3.8189257186458485e-02  6.7327060638301650e-01  3.9542872336811974e-01  5.4556148255048775e-01  4.8976214364520393e-01  4.3426704582655057e-01  1.3830310497077980e-01  4.6794269405600381e-01  4.7215254561980730e-01  6.7946858834874724e-01  6.2376123405279860e-01  6.8507659313345204e-01  4.5937228711415584e-01  4.2121883606496385e-01  5.1144704068629421e-01  2.1872984546882704e-01  5.4226977586083547e-01  4.2961353470610897e-01  5.9730691855271034e-01  5.3555474517554302e-01  5.5405347901323920e-01  4.0647086273234240e-02  9.1136736128148502e-02  5.6058586911308028e-01  5.4589637559931792e-01  9.3616834978844876e-02  2.7675984334400611e-01  6.7374466530301069e-01  3.2115356691667857e-01  4.7625187065011942e-01  5.0474257793896948e-01  5.6579857318745297e-01  7.3096194199669273e-01  5.4557313521529716e-01  5.9399405915880987e-01  7.9669577849065892e-02  1.3561848036171789e-01  3.3258327348578287e-01  5.4610298408704872e-01  4.9895771199372019e-01  4.7154793940197104e-01  7.2598961645378890e-01  2.1176538179830157e-01  1.6560733031144886e-01  5.4224081550788694e-01  4.5035427120433941e-01  6.7223011295023383e-01  3.2747422513267982e-02  5.4597911678644673e-01  3.2837087829371836e-01  3.3797592855055480e-01  5.3371703908789248e-01  4.3779895238119454e-01  4.0429525678024680e-01  4.5472472694993993e-01  5.2926343292101885e-01  7.3506001264778720e-01  5.5529093249140149e-01  4.9380632991954654e-01  5.3995626322537194e-01  5.8761344055366793e-01  3.9302479744749974e-01  2.1528288373047155e-01  5.3811750916771495e-01  2.8110091035551347e-02  7.3525966403070853e-01  6.8278740737036814e-01  4.0349557689430443e-01  5.0031773609334773e-01  5.1488672437025618e-01  6.4183369601006379e-01  5.1849327665107992e-01  4.7236294361674763e-01  5.4123860993630957e-01  6.1941433556934067e-01  1.9533818338861322e-01  3.4290644942792758e-01  8.7922358540697118e-02  5.8262260320359649e-01  4.9377028391595879e-01  5.3742178826101206e-01  5.3646903767230669e-01  6.5047371951917043e-01  2.6383225882564659e-01  4.4390134161280220e-01  4.4413966803748456e-01  5.4705808659644195e-01  5.4763706873620577e-01  4.3011905933338201e-01  3.9425901250707612e-01  </DataArray> 
</PointData> 
</Piece>
</UnstructuredGrid>
</VTKFile>