<?xml version="1.0"?>
<VTKFile type="UnstructuredGrid"  version="0.1"  >
<UnstructuredGrid>
<Piece  NumberOfPoints="406" NumberOfCells="722">
<Points>
<DataArray  type="Float64"  NumberOfComponents="3"  format="ascii">-6 -2 0  -6 2 0  6 2 0  6 -2 0  -2.8 0 0  -1.2 0 0  -5.500000000001853 -2 0  -5.000000000003705 -2 0  -4.500000000005556 -2 0  -4.000000000007409 -2 0  -3.50000000000926 -2 0  -3.000000000011112 -2 0  -2.500000000012963 -2 0  -2.000000000014814 -2 0  -1.500000000016665 -2 0  -1.000000000018516 -2 0  -0.5000000000203677 -2 0  -2.204547655537681e-11 -2 0  0.4999999999796305 -2 0  0.9999999999814779 -2 0  1.499999999983327 -2 0  1.999999999985175 -2 0  2.499999999987029 -2 0  2.999999999988882 -2 0  3.499999999990735 -2 0  3.999999999992589 -2 0  4.49999999999444 -2 0  4.999999999996293 -2 0  5.499999999998147 -2 0  6 -1.500000000001387 0  6 -1.000000000002774 0  6 -0.5000000000041616 0  6 -5.505595979116151e-12 0  6 0.4999999999958384 0  6 0.9999999999972258 0  6 1.499999999998613 0  5.500000000001853 2 0  5.000000000003705 2 0  4.500000000005556 2 0  4.000000000007409 2 0  3.50000000000926 2 0  3.000000000011112 2 0  2.500000000012963 2 0  2.000000000014814 2 0  1.500000000016665 2 0  1.000000000018516 2 0  0.5000000000203677 2 0  2.204547655537681e-11 2 0  -0.4999999999796305 2 0  -0.9999999999814779 2 0  -1.499999999983327 2 0  -1.999999999985175 2 0  -2.499999999987029 2 0  -2.999999999988882 2 0  -3.499999999990735 2 0  -3.999999999992589 2 0  -4.49999999999444 2 0  -4.999999999996293 2 0  -5.499999999998147 2 0  -6 1.500000000001387 0  -6 1.000000000002774 0  -6 0.5000000000041616 0  -6 5.505595979116151e-12 0  -6 -0.4999999999958384 0  -6 -0.9999999999972258 0  -6 -1.499999999998613 0  -2.776753453941174 -0.1914525314286965 0  -2.708364820523325 -0.3717785376335722 0  -2.598808598538216 -0.5304981265911284 0  -2.454451797386757 -0.65838709271366 0  -2.283683909636528 -0.748012994147384 0  -2.096429344207466 -0.7941670992780535 0  -1.903570655798842 -0.7941670992788195 0  -1.716316090368095 -0.7480129941491368 0  -1.545548202616307 -0.6583870927157747 0  -1.401191401463757 -0.530498126593356 0  -1.291635179477527 -0.371778537635196 0  -1.223246546059047 -0.1914525314295925 0  -1.223246546058803 0.1914525314286035 0  -1.291635179476594 0.3717785376334188 0  -1.401191401461634 0.5304981265909601 0  -1.545548202612898 0.6583870927134221 0  -1.716316090363093 0.7480129941472402 0  -1.903570655792394 0.7941670992780367 0  -2.096429344201276 0.7941670992788055 0  -2.283683909631911 0.7480129941491347 0  -2.454451797383697 0.6583870927157729 0  -2.598808598536385 0.530498126593196 0  -2.70836482052258 0.3717785376349917 0  -2.776753453940975 0.1914525314295042 0  0.4588466633941945 0.2704149791022056 0  -4.424312812173863 0.2760319703992994 0  -3.803977598762586 -0.6841584599595646 0  -0.1330968762779425 -0.6798763971615133 0  2.451109587541276 3.169800318630399e-13 0  -3.563610936250569 0.5929994091167295 0  4.204753319582647 0.2820669554523581 0  -0.4390897559348154 0.6178095532273566 0  -3.041446812595122 1.175550440315544 0  -0.9622132806516797 1.132103015222783 0  1.069493318942931 -0.773608156980569 0  -4.924330687080279 -0.7127064269610045 0  -3.024693497948964 -1.195179289656404 0  -0.9648749555625579 -1.256854520022574 0  -3.443624282349383 -0.2044158249759613 0  -0.5611500783757608 -0.1747080110423833 0  1.60270880116926 0.7487034276124258 0  3.488352576142236 -0.8228939860777884 0  4.816375011670135 -0.8163750116689444 0  3.243628045085357 0.8578172796997985 0  -4.228632884234073 1.228069101636678 0  -2.365220384435482 -1.356128547810356 0  -1.637465979486354 1.3571687267915 0  -1.642380978561139 -1.359365080147485 0  -2.362988915989869 1.356737096243695 0  -5.134120367293631 0.8356299802910161 0  2.077496878467794 -0.9514080034522553 0  4.960859291178299 0.9608592911785537 0  0.3293120056474302 1.148965409695154 0  -5.157560560414062 0.09447106214747865 0  -3.14779387667392 -0.6330563038825547 0  -3.148134455585257 0.4354299640428653 0  -0.8464439673630421 0.4159277415926296 0  -0.9918125625721008 -0.7191748422889824 0  -4.355349213295776 -1.234510499778242 0  1.582074659164868 -0.06850205959954866 0  2.400584045214166 1.204278622181321 0  5.102831660739063 0.03453404176596848 0  4.083259768981113 1.154272958349666 0  -3.992394834362243 -0.1621022234411988 0  0.4290302718942113 -1.225465289645401 0  -3.681487986394671 -1.310544246656267 0  -3.640289698916164 1.187023654838123 0  0.468851680921228 -0.447055967952278 0  3.315209904217932 0.05667935655546536 0  -2.541160649745046 -1.046980928586996 0  -1.45196684542695 1.044189935346116 0  -2.000844595891861 -1.207983108473125 0  -1.453092202970521 -1.061139264918894 0  -2.000050543938391 1.207806685704176 0  -2.548033154566413 1.04418993534851 0  4.13054585796652 -1.232871249381608 0  -0.3301617095463629 1.221692405319566 0  -0.2880491989587189 -1.359626628407983 0  -0.0758941643813178 0.132275811829787 0  2.826389221580753 -1.233168480096227 0  -2.922070412327736 0.7575752117792038 0  1.003070890178416 1.271347915034201 0  -5.319521816151902 -1.310543894393663 0  -1.070407062963812 0.7877698545098388 0  -4.562499863038985 -0.2302396981426722 0  -3.164226661545047 0.07179577787350272 0  -0.9091377812900333 0.132454654016971 0  4.116029045943655 -0.4851826871817362 0  5.316659189209927 -1.316659189208741 0  -0.9498828454673396 -0.4149758979014553 0  -4.037769805263969 0.6896174350675625 0  1.431664772855882 -1.327784137638992 0  -3.646693623568034 0.1600006358878044 0  -2.878371345483476 -0.7910345833001061 0  1.062603041385242 0.2894765870627741 0  -0.547955103783681 0.1635272504420374 0  -4.804809838419659 1.41016301576038 0  -3.042895319571192 -0.3694931303482478 0  -4.59252578392403 0.792267765362792 0  2.823271260730033 -0.5472430318427347 0  -4.28575390662405 -0.7521491832384866 0  -0.5524005545121191 -0.9037367558558163 0  1.815219025072439 1.388812135783969 0  -1.288398729718543 -0.8178399475601057 0  -5.424388493366639 1.35375165044146 0  -2.256991952837567 -1.049538527273222 0  -1.739586738723494 -1.052327527873255 0  -1.738827359988536 1.050180627239116 0  -2.257795730428802 1.049701225145305 0  -0.62222340523776 -0.5483611729237363 0  2.065188519029698 0.5424877383589943 0  0.1055865106318892 0.7347782870471022 0  1.013082573993895 -0.2061877611231605 0  -5.428323520618333 -0.4386412085227075 0  5.374041502384443 -0.5304401760993408 0  3.435185060219232 -1.377658617395091 0  -3.302377238490527 0.8841390072780534 0  -0.9902123298072768 -0.124175295282554 0  0.7186958547669859 0.8724503317343631 0  2.941237214953417 1.390391532351976 0  4.708037787864423 -1.340276032051348 0  5.395029680982659 1.395029680983341 0  3.591022587550188 1.348260650408605 0  2.759385971589342 0.4857447325740718 0  -0.6832705231418494 0.8879387563573758 0  5.437781298507145 0.5981501503262471 0  -2.698603003287285 1.617130043745112 0  -3.463358189947519 -1.013588318179017 0  1.710866040171871 -0.6978716337870808 0  3.642182982762737 0.4555704362064124 0  -2.699802128031161 -1.618310703146212 0  -1.3020054856637 1.619819977935582 0  -2.000000000004996 -1.566396763829867 0  -1.999999999994794 1.566396763830688 0  -1.247812462071684 -1.595232739507426 0  4.59429106759859 1.420052135572917 0  0.9448382581152466 -1.440259145469251 0  -0.116376100998861 -0.2606209011258676 0  -4.774521510507792 0.4245390872783272 0  -2.983910172370106 -0.1208000607277856 0  -3.353983741142061 1.576062863985777 0  -5.473352579109997 0.4917619255280954 0  -4.828650470275986 -1.493148538517745 0  4.639973657165532 -0.2833178611094909 0  -2.660279445404468 0.7699932347178977 0  -1.335045190775955 0.7744876666923373 0  -3.395669172689978 0.2584951122361346 0  2.279110606119369 -1.465899541383697 0  4.734317729212562 0.4520963557364723 0  -0.6334913028224612 1.584213953723378 0  2.121854101359879 -0.4289611127787379 0  -3.474459720833238 -0.4977581316675216 0  -1.066539898844178 0.3411379476537602 0  -3.361849707555382 -1.611428512420182 0  -4.099039818938317 0.3306400369415774 0  -2.935324777364672 0.354721898811665 0  -3.973578595052027 1.482940358734671 0  3.784450148635689 -0.0702780807301525 0  -1.191348122671212 -0.5614501189722798 0  -2.838672605956353 -0.5493179047027598 0  -1.184983441257359 0.5617520886612424 0  -2.811184099847449 0.5574240755049175 0  0.2702752249355158 -0.8003643570420809 0  -0.6945947797857237 -1.593893965175195 0  0.001175881878679056 1.504521009023778 0  0.6072931735145096 1.501814722697789 0  -3.991896293645949 -1.047264188412552 0  -3.734097395159253 -0.3261671578666079 0  -5.539652387691843 -0.8857154182585802 0  -4.395061924111849 1.563293728588296 0  0.2258327611651416 -0.08745142624872881 0  -3.774816634825771 0.8676973328379478 0  2.208484493569073 1.6256686312487 0  0.1309939514660535 -1.566169703482512 0  -5.551414360955331 0.9459842275970113 0  -4.04734138658365 -1.51163984963472 0  -4.947145019546805 -0.3299925153029702 0  4.320410447198621 0.6970857582435144 0  -4.707557346727139 -1.000565649857444 0  1.353711468973986 1.582551234446199 0  1.674156483558973 0.3266252271732694 0  -4.039105552973997 -0.4537604746027087 0  0.01051727619263377 -1.088858357362194 0  -0.2234942609176301 0.8619127912343982 0  -2.95903482691863 0.1219373374385197 0  -4.682467695920681 0.0804575682243254 0  5.535750224195656 -0.1525732643419722 0  -4.290083947414376 -0.0005258314026840717 0  1.136102562417988 0.7655312464039168 0  -2.816589394567214 0.9927597419785312 0  -2.645374456162409 -0.7645902451387543 0  4.18414576655837 1.624276131878667 0  0.7127337088822223 -0.9006358935856398 0  1.972418102153911 0.9727040774616764 0  -2.42199174813501 0.8591219219254587 0  -2.418604734200992 -0.8552987735117754 0  -5.573597213364169 -0.03612430678117123 0  2.024792870869397 0.05574071630590883 0  -1.578875191508968 0.861424470724936 0  -1.54706008231699 -0.8630049102346303 0  3.848662181064435 -1.569601980075533 0  -2.000000000003871 -0.9746445732264465 0  -1.99999999
[...]
<PointData  Scalars="f_24"> 
<DataArray  type="Float64"  Name="f_24"  format="ascii">-4.5209446520561303e-01  -4.5209446520561303e-01  0.0000000000000000e+00  0.0000000000000000e+00  -7.7784081857383480e-01  1.7596765175591063e-02  -4.6041816786710588e-01  -4.6779226935399043e-01  -4.7460045743475798e-01  -4.7966040537646565e-01  -4.8118585481585496e-01  -4.6960235254572341e-01  -4.3533488538707427e-01  -3.3216751191071409e-01  -1.8498087502437474e-01  -5.7153724482320450e-02  1.6630963157700438e-02  5.1874399760636458e-02  6.4930936074843376e-02  6.7973830508559319e-02  6.6404124711533646e-02  6.1550342465534827e-02  5.5493190983131373e-02  4.8512374986906304e-02  4.1206171127645470e-02  3.3249224670827568e-02  2.5195783435109496e-02  1.7061491110449221e-02  8.5406650423382156e-03  0.0000000000000000e+00  0.0000000000000000e+00  0.0000000000000000e+00  0.0000000000000000e+00  0.0000000000000000e+00  0.0000000000000000e+00  0.0000000000000000e+00  8.5374432992537750e-03  1.7023508973537660e-02  2.5377412241569093e-02  3.3287176078579603e-02  4.1166063044768011e-02  4.8600657250469706e-02  5.5558989759699154e-02  6.1669358961185659e-02  6.5999313495390052e-02  6.8042424364582688e-02  6.4955977884003396e-02  5.1203619849990473e-02  1.7736826316146131e-02  -5.8268580809902576e-02  -1.8387232154460334e-01  -3.3233728077198327e-01  -4.3537912325373385e-01  -4.6939485130905817e-01  -4.8131261789609431e-01  -4.7953479448964254e-01  -4.7468985569138650e-01  -4.6794499983399784e-01  -4.6040207848285286e-01  -4.5209446520561303e-01  -4.5209446520561303e-01  -4.5209446520561303e-01  -4.5209446520561303e-01  -4.5209446520561303e-01  -4.5209446520561303e-01  -4.5209446520561303e-01  -7.6908133658666555e-01  -7.4611242768408359e-01  -6.8882194564575872e-01  -5.9449044036046539e-01  -4.7847354908847201e-01  -3.4326275915411603e-01  -2.1243071370309549e-01  -1.0392914666480574e-01  -3.6906807277612134e-02  -2.6197372599973887e-03  1.0270726607562845e-02  1.6019625939526758e-02  1.5933565084575673e-02  1.0331827097621041e-02  -3.5753202282385269e-03  -3.6056311431049155e-02  -1.0340895672240603e-01  -2.1260336924339981e-01  -3.4323345932798022e-01  -4.7795470170462695e-01  -5.9530261455403810e-01  -6.8793705057878840e-01  -7.4365421464760173e-01  -7.7073513730685439e-01  5.0062189425018888e-02  -4.8909669372576736e-01  -5.0266467687204208e-01  3.5175358258419720e-02  5.1723555581225156e-02  -5.2272762445206411e-01  2.8918421349899165e-02  2.2197906905755044e-02  -4.7727123118771925e-01  -4.9499940835754812e-02  5.9561283995660144e-02  -4.7181221387925149e-01  -4.7466935389078196e-01  -5.6695585351027034e-02  -5.6362107393912853e-01  2.2563774852381195e-02  5.9403949040213302e-02  3.9917050187945224e-02  1.9496103561602980e-02  4.3465583540889884e-02  -4.7746459628313220e-01  -4.1063621246145560e-01  -2.3201266442277274e-01  -2.3352816185637801e-01  -4.1019245427777806e-01  -4.6721681704160706e-01  5.7175983485638307e-02  1.7257691764327961e-02  5.1942287441734097e-02  -4.6933925047499087e-01  -5.5623981459814653e-01  -5.9277690162572405e-01  7.7535985132863132e-03  -1.8825911717305969e-02  -4.7596639366181870e-01  5.7175814599477293e-02  5.4762302550859107e-02  1.4688456437068082e-02  3.1397062857123036e-02  -5.1085562789767025e-01  5.4795072887683413e-02  -4.7782730692582681e-01  -4.8068193140568000e-01  5.0873050625854094e-02  4.1628448068790930e-02  -4.7741920903564333e-01  -1.4500423837370163e-01  -3.4356236667305501e-01  -1.4751282486371636e-01  -3.4332813689303349e-01  -4.7928659593092710e-01  3.0669626252810486e-02  2.1019534486589803e-02  2.3894287908225485e-02  3.7532170898888967e-02  4.9646757268303629e-02  -5.5511943875998759e-01  6.2237893807808399e-02  -4.6285286295175299e-01  -3.5194843433312195e-02  -4.8479606017802301e-01  -6.2698790074084554e-01  1.5081941627911861e-02  3.0348216322791419e-02  1.1403788621344292e-02  4.7472088720226444e-03  -4.9421620593430210e-01  6.2888239410778146e-02  -5.3977998193587806e-01  -5.4946401141769352e-01  5.6839296212283230e-02  2.2974566119335921e-02  -4.6998844822508712e-01  -6.2956047060179565e-01  -4.7785602417076101e-01  4.8280044863089767e-02  -4.8508934191306646e-01  8.7410811847375546e-03  6.0886575159051534e-02  -6.2804627178869255e-02  -4.6120735745804631e-01  -4.2934598607926416e-01  -2.3605740492686436e-01  -2.3529604807074048e-01  -4.2948478561818748e-01  1.4497362450438485e-02  5.5887502052737570e-02  4.3613921630525562e-02  5.6299836782094617e-02  -4.6266247337081906e-01  1.0325953288983751e-02  4.1389145455532766e-02  -5.0876907217239986e-01  1.4726218680022621e-02  5.7365078208540643e-02  4.8365154043541317e-02  2.1507588602745518e-02  1.0200249221492494e-02  3.9034866605830186e-02  4.8946485900174939e-02  -1.5475979787203664e-03  9.3336291170516561e-03  -4.3457632052765549e-01  -4.9153474757544913e-01  5.8793723386400723e-02  3.7332130843043203e-02  -4.3471126980188146e-01  -1.3987515517268212e-01  -3.2720279544313441e-01  -3.2717763465438010e-01  -1.2488845456703115e-01  2.3446377173949172e-02  6.3031996865205039e-02  3.6323170313248790e-02  -4.7737834968691384e-01  -6.8744619582064348e-01  -4.6884214947812997e-01  -4.6188366028027111e-01  -4.6943361135282496e-01  2.2117034069840918e-02  -5.7187913713719829e-01  -5.8465777437467573e-02  -5.6605239621242975e-01  5.6742026510690435e-02  2.0693819109841569e-02  -1.2159284573204442e-02  5.5125326835945787e-02  -5.3816026143073936e-01  8.0081636559638670e-03  -4.6974926438478387e-01  -5.0220603243544226e-01  -6.6642131676272565e-01  -4.7622211472239573e-01  3.5092053555803138e-02  -1.1560474555100182e-02  -6.3445290379330654e-01  -1.1033172868666646e-02  -6.3950028869198072e-01  4.8724496864300512e-02  -1.8676980122204267e-02  4.0854799539778060e-02  5.9454819677752971e-02  -4.8325670180461294e-01  -5.2551015860247041e-01  -4.5990136775380808e-01  -4.7415908921461208e-01  4.5157104379100393e-02  -4.9472793020576700e-01  5.7881935682425625e-02  4.7726992087116296e-02  -4.5968959266975934e-01  -4.7611235331874074e-01  -4.7360308977743365e-01  2.7351353922260329e-02  -4.7330943547063192e-01  6.4023618425043421e-02  5.7493233000865111e-02  -5.0190617608353938e-01  4.0794191853561187e-02  3.1036077660158475e-02  -6.9860042503450592e-01  -4.8151422181021747e-01  7.6183840181819834e-03  -4.9612163203956972e-01  5.9682643041200648e-02  -5.0169144835845048e-01  -5.7393189945768652e-01  3.0184683355097573e-02  5.7491938274432261e-02  5.8196526862563061e-02  -5.1524472729131210e-01  -5.1472720294798646e-01  -4.6001994960155768e-01  5.5239865168104946e-02  -1.2230808025375015e-01  -1.1571554622370611e-01  3.5213676936891689e-02  -3.2659891274089153e-01  -3.2656118191649414e-01  -4.5495840439562674e-01  3.7736751855986198e-02  -8.3437948806449058e-02  5.2979129088685087e-02  6.6671899040197935e-03  6.9330973455734614e-03  4.9117555313386928e-02  -1.2330085569361536e-01  -7.3887053677967329e-02  5.2545274967671890e-02  2.6551332980539410e-02  2.8883403498644041e-02  6.2176386228874447e-02  4.3812757203149533e-02  -5.7964853315035914e-01  4.7088122961440562e-02  -4.5440936328035436e-01  -5.4972728208058363e-01  3.3730268945776049e-02  4.2467740497311134e-02  1.6810770162310789e-02  2.9802609488760422e-02  3.6109946601142681e-02  1.8037976491038419e-02  -1.3132427579046269e-01  5.1281429548922161e-02  -5.0538178398195244e-01  6.1053782424166869e-02  -5.1719291647044363e-01  -4.5870749352497442e-01  4.3857946931824918e-02  1.4693705079401641e-02  -4.7135924023767006e-01  -4.8046172545826688e-01  -3.9512254736012338e-03  -4.7382711185281656e-01  4.5913344874175449e-02  1.2547575500479989e-03  6.4614760849990641e-02  -3.8694283902712923e-01  -2.4382454189551758e-01  -2.4200977144466712e-01  -3.8686550293747840e-01  6.1829748539126900e-02  -4.7527357010422777e-01  4.4531315382942672e-02  -1.3866296458101852e-02  6.7118559362045723e-03  -4.6705067219709273e-01  -6.3340792601351614e-01  -4.7638559914863476e-01  5.8454223749530021e-02  5.8454284986788632e-02  2.3746043873489858e-02  -5.4995445612489824e-01  5.5922235565860616e-02  -4.6512016798482769e-01  -4.8009254875407936e-01  -4.6425359436491304e-01  -5.7509771736695992e-01  -6.1031584437712227e-01  4.3940555311642024e-02  3.6283478765181607e-02  1.7198492363938795e-02  6.0867425706660185e-02  -4.8702936232713950e-01  2.6015226638215302e-02  1.5716092012812436e-02  6.9516214988397038e-03  1.5831881746726555e-02  9.3999593041590272e-03  2.3232208318520353e-02  1.5949185878372154e-02  4.6304662076768741e-02  -4.6635467163243316e-01  5.2782957800873567e-02  5.5043473698924997e-02  -5.3886281828868021e-01  -4.8294763208090896e-01  -4.5710342040918017e-01  -1.8531075100670615e-02  -4.8199759750698146e-01  1.3740382502757383e-02  2.2923179069498680e-02  -7.0017707115646322e-01  2.8965114114222021e-02  5.1218015443869030e-02  6.4031741857472235e-02  -4.5796106193737135e-01  3.6182007164313745e-02  2.7783416489557296e-02  -4.7543545830984735e-01  -4.9219403374414916e-01  -4.6929722498395277e-01  5.8803591446907862e-03  1.6703676423768750e-02  5.1220453156388443e-02  5.3100634603950307e-02  2.8276244886022799e-02  5.7092311682824401e-02  -6.0067495236436330e-01  6.1433236654064374e-02  3.9455656196208694e-02  -4.5641248924284616e-01  -5.1627715898241271e-03  -4.5835940330427988e-01  -5.1709782468055265e-01  -4.9341234092938041e-01  6.0173627297202936e-02  3.6319960233350636e-02  -6.4702263603655483e-02  4.9148815817644902e-03  -4.5671048149525401e-01  -4.6647664368154795e-01  6.2720022740051604e-02  -5.1393995165658757e-01  -5.0418250936343878e-01  -4.7054989043767054e-01  5.5016642110263511e-02  -5.0490006596800940e-01  -4.9105769420791506e-01  -4.7442192994560195e-01  3.2804846109855061e-02  5.2813060434548351e-02  1.5028282096978540e-02  -3.7317191269038624e-02  -4.5815882347353815e-01  2.2069681829160196e-02  2.7673403698873375e-02  -4.7286460510354461e-01  4.3884626026494990e-02  -4.2444958254208215e-01  -4.2406791903972935e-01  -1.9613429807857344e-01  -1.9417318223558128e-01  5.8318860321943763e-02  5.7019926055569478e-02  </DataArray> 
</PointData> 
</Piece>
</UnstructuredGrid>
</VTKFile>