<?xml version="1.0"?>
<VTKFile type="UnstructuredGrid"  version="0.1"  >
<UnstructuredGrid>
<Piece  NumberOfPoints="622" NumberOfCells="1116">
<Points>
<DataArray  type="Float64"  NumberOfComponents="3"  format="ascii">-6 -2 0  -6 2 0  6 2 0  6 -2 0  -2.8 0 0  -1.2 0 0  -5.500000000001853 -2 0  -5.000000000003705 -2 0  -4.500000000005556 -2 0  -4.000000000007409 -2 0  -3.50000000000926 -2 0  -3.000000000011112 -2 0  -2.500000000012963 -2 0  -2.000000000014814 -2 0  -1.500000000016665 -2 0  -1.000000000018516 -2 0  -0.5000000000203677 -2 0  -2.204547655537681e-11 -2 0  0.4999999999796305 -2 0  0.9999999999814779 -2 0  1.499999999983327 -2 0  1.999999999985175 -2 0  2.499999999987029 -2 0  2.999999999988882 -2 0  3.499999999990735 -2 0  3.999999999992589 -2 0  4.49999999999444 -2 0  4.999999999996293 -2 0  5.499999999998147 -2 0  6 -1.500000000001387 0  6 -1.000000000002774 0  6 -0.5000000000041616 0  6 -5.505595979116151e-12 0  6 0.4999999999958384 0  6 0.9999999999972258 0  6 1.499999999998613 0  5.500000000001853 2 0  5.000000000003705 2 0  4.500000000005556 2 0  4.000000000007409 2 0  3.50000000000926 2 0  3.000000000011112 2 0  2.500000000012963 2 0  2.000000000014814 2 0  1.500000000016665 2 0  1.000000000018516 2 0  0.5000000000203677 2 0  2.204547655537681e-11 2 0  -0.4999999999796305 2 0  -0.9999999999814779 2 0  -1.499999999983327 2 0  -1.999999999985175 2 0  -2.499999999987029 2 0  -2.999999999988882 2 0  -3.499999999990735 2 0  -3.999999999992589 2 0  -4.49999999999444 2 0  -4.999999999996293 2 0  -5.499999999998147 2 0  -6 1.500000000001387 0  -6 1.000000000002774 0  -6 0.5000000000041616 0  -6 5.505595979116151e-12 0  -6 -0.4999999999958384 0  -6 -0.9999999999972258 0  -6 -1.499999999998613 0  -2.796147781337886 -0.07841371226233997 0  -2.784628224322852 -0.1560722576115546 0  -2.765552268586196 -0.2322277418021561 0  -2.739103626009626 -0.30614674589063 0  -2.705537011479457 -0.3771173894593519 0  -2.665175689843037 -0.4444561864141836 0  -2.618408362691456 -0.5075146273293722 0  -2.565685424950688 -0.5656854249477874 0  -2.507514627332613 -0.6184083626887972 0  -2.444456186417533 -0.6651756898407991 0  -2.377117389462776 -0.7055370114776264 0  -2.306146745894456 -0.7391036260080417 0  -2.232227741806235 -0.7655522685849585 0  -2.15607225761588 -0.784628224321992 0  -2.078413712266957 -0.7961477813374315 0  -2.000000000003407 -0.7999999999999998 0  -1.921586287739523 -0.7961477813380696 0  -1.843927742389945 -0.7846282243231506 0  -1.767772258198879 -0.7655522685865098 0  -1.693853254109962 -0.7391036260098718 0  -1.622882610540873 -0.7055370114795768 0  -1.555543813585629 -0.6651756898429115 0  -1.49248537267008 -0.6184083626910072 0  -1.434314575051535 -0.5656854249500112 0  -1.381591637310384 -0.5075146273316149 0  -1.334824310158267 -0.4444561864161359 0  -1.294462988521423 -0.3771173894609975 0  -1.260896373990956 -0.3061467458920351 0  -1.234447731414138 -0.2322277418032578 0  -1.215371775677287 -0.156072257612254 0  -1.203852218662147 -0.07841371226267954 0  -1.203852218662115 0.07841371226235888 0  -1.215371775677132 0.156072257611478 0  -1.234447731413795 0.232227741802127 0  -1.260896373990353 0.3061467458905811 0  -1.294462988520456 0.3771173894591898 0  -1.334824310156812 0.444456186413959 0  -1.381591637308413 0.5075146273292139 0  -1.434314575049147 0.5656854249476236 0  -1.492485372667197 0.6184083626886415 0  -1.555543813582104 0.6651756898405565 0  -1.62288261053673 0.7055370114773629 0  -1.693853254105125 0.7391036260078683 0  -1.767772258193396 0.7655522685848468 0  -1.84392774238373 0.7846282243219146 0  -1.921586287732977 0.7961477813374253 0  -1.999999999996558 0.8 0  -2.078413712260516 0.7961477813380661 0  -2.156072257610207 0.7846282243231205 0  -2.232227741801178 0.7655522685864928 0  -2.306146745890059 0.7391036260098632 0  -2.377117389459098 0.7055370114795929 0  -2.444456186414405 0.6651756898428894 0  -2.50751462732998 0.6184083626909587 0  -2.565685424948549 0.5656854249499272 0  -2.61840836268981 0.5075146273313792 0  -2.665175689841831 0.4444561864159886 0  -2.705537011478692 0.3771173894607835 0  -2.739103626009108 0.3061467458918818 0  -2.76555226858589 0.2322277418031643 0  -2.784628224322724 0.1560722576122001 0  -2.796147781337853 0.07841371226267957 0  0.6720367661319522 0.1312687487860887 0  -4.389489086394485 0.3544472233398538 0  -3.816221554046232 -0.6097988664512611 0  -3.552726516474419 0.9342959806851625 0  -0.2536610443052337 0.8162373554653355 0  -0.1843238977799138 -0.6649951410982842 0  -3.613359951620445 0.1086570650978273 0  -3.146954163409593 -1.074378179335012 0  -0.4255266515582625 0.07734891565364931 0  -0.9413731612925856 1.168014724254929 0  -2.947764053183577 1.200029094390044 0  -0.8319852757411681 -1.058626838707328 0  2.675418990747819 -1.137325591670363e-12 0  -2.602010642259726 -1.287560129290477 0  -2.334401622060699 1.335006108940604 0  -1.524718496628401 1.32890816230333 0  -1.369813829148039 -1.26145150481762 0  -3.294065651892671 -0.4630240940010318 0  -2.072749204569071 -1.388981302138359 0  -0.7546165313921411 0.5601792161340381 0  -3.224879719581335 0.4382689715877901 0  -0.7073137361349826 -0.4625305410752652 0  4.326242945813966 0.3262429458150917 0  -3.187880061217201 0.07437712177460168 0  -2.94792024259867 0.7030255657465158 0  -2.678809277907896 0.9152683582887104 0  -4.911626141576894 -0.5700186648601188 0  -2.980647654587299 -0.5685006168686053 0  -2.769438919323564 -0.8202775213660614 0  -1.936950121013948 1.220669938589229 0  -0.8971643766260747 0.2762459428874499 0  -0.8760878018253068 -0.06836412137772707 0  -1.086827485441145 0.6772548942594016 0  -1.31355927028917 0.8808768148414213 0  -1.034266382739347 -0.5912381576649568 0  -1.241594139118264 -0.836771920085274 0  1.667161185638911 -0.6367996576268693 0  1.778189842800902 0.7191719841256095 0  -3.065106827511819 -0.266795371500425 0  3.714311277362231 -0.7275465302492842 0  -1.728329421201519 -1.09954751473283 0  4.870629493137888 -0.7325040699186681 0  -3.024707894719303 0.2567561910603656 0  -4.375540207252226 1.228935704312058 0  -2.272077148001781 -1.086192861256262 0  3.351408248797803 0.9175227128129597 0  -5.141847419540732 0.8091901960109126 0  0.5769368286199241 1.111816231125821 0  0.7411482978492124 -1.079569101289617 0  -1.074013749991219 0.430231207546053 0  -1.04664573441257 -0.3358382377487088 0  -2.439195336951085 0.9224778883059374 0  -2.902607676587358 0.4360473765597399 0  -1.629450174302152 1.035617385691805 0  -2.146859933125513 1.032375363966426 0  2.587625196444542 -0.9999926061845814 0  -2.529286802957126 -0.8830616815739111 0  -1.493798157676768 -0.8794705728517196 0  -1.932158132383022 -1.026681566564148 0  -4.09956359341904 -0.1372485582942864 0  5.055802064425553 1.050933510837308 0  -4.413659685984891 -1.207626391697488 0  -4.961411026474009 0.1201902955685026 0  -3.771151641156835 -1.303594976371997 0  -3.001321503506133 -0.04919177107285733 0  -3.881733605683001 0.5124517634812003 0  -0.1971627317996802 -1.336445372382849 0  -2.742825060181767 0.6732573903735507 0  2.520439429199979 1.129372838786189 0  -1.026326428668429 0.1384273198437734 0  -2.779290004861729 -0.5844691722665721 0  -2.895095740820851 -0.4261289730972082 0  -1.275682076193407 0.6630703172777138 0  0.1045291701958869 0.3433373435296472 0  5.175560481258801 0.0608563229178163 0  -1.211574424201636 -0.5847362589868093 0  -1.85847006217035 1.007917631940711 0  4.152535916385823 1.131901130662082 0  -1.04878257200685 -0.1253529988863012 0  1.432836501626023 0.05634449574318775 0  3.560672936003603 0.01188897172456759 0  -3.351823698389408 -0.1821329582635926 0  -5.145153363200735 -1.259166339382508 0  0.03473693330309885 -0.1724947236036572 0  -4.377830921337186 -0.6172564090242229 0  -0.3943750728122595 1.410897156959435 0  -1.661073679471639 -0.9342065000197183 0  -1.49086536677686 0.8331714487926741 0  -2.584486130952032 0.7871482690034864 0  4.270535884593893 -1.259607924744415 0  -1.757417028085795 -1.505182186951191 0  -3.430586920998477 1.425579221231371 0  -2.917598827418652 -0.2298465409534677 0  -2.328978331116049 -0.9300959620317677 0  -2.148543000691344 -0.9751580214451921 0  1.002654111360038 -0.4521702885594788 0  -4.628651824080903 -0.1127998710567241 0  -2.948904386702482 0.1555943115410545 0  0.4165242577134774 -0.5629432649478633 0  -3.698137692471105 -0.3173027948676715 0  -3.491400684461791 -0.7926319721650269 0  -0.3844454817728994 0.4680628696134375 0  -3.207830713508533 0.9778749990559993 0  3.229909751065535 -1.326302454776001 0  5.330007715336748 -1.312905173261894 0  -2.649214054100534 -0.713314536278899 0  1.342022964818772 -1.328315248672686 0  -2.556460939068198 1.202372762828344 0  -0.3497819755044588 -0.3080427614060888 0  -4.928440909495523 1.387622767511967 0  1.309170811945155 1.337467055109531 0  -1.352031940181449 -0.7151198948590243 0  -0.6132855723904642 0.9519045895123004 0  4.266838388406324 -0.3707357390867402 0  -3.834389788310238 1.371594798941152 0  -1.187890214580146 0.4851427123079557 0  -1.109118888029193 0.3185947354467283 0  0.1837819401738013 1.234799661476361 0  1.108165254659559 0.6237223548284967 0  -0.5266600156584522 -0.8113991260886402 0  -4.643822083543982 0.7834094684931707 0  -1.146235204666366 -0.4027330721405781 0  2.049029845992713 -0.2664662499985428 0  2.002665761665898 -1.328912351029848 0  -1.678783505586872 0.8978832065736417 0  -2.049499525232052 0.9483890761590005 0  -2.229972236535132 0.9181006323151361 0  -3.033763529945482 -1.54240494280775 0  -3.562344364746847 0.5622550957224539 0  -5.524396842903405 -0.2709714867672603 0  -0.9710982764034376 -1.549038578476423 0  3.058819320130555 -0.5375106252795963 0  -4.170365230099585 0.7342553699229977 0  -1.045878746461381 -8.187420622554697e-05 0  -1.864822945411764 -0.9219031104673102 0  -0.6251005091687033 -0.2120650512195049 0  2.317562622406059 0.4886417799113238 0  -0.6674371191466613 0.1483993095055008 0  -2.705757882979874 1.609712312948224 0  
[...]
<PointData  Scalars="f_24"> 
<DataArray  type="Float64"  Name="f_24"  format="ascii">9.9999997610119140e-01  9.9999997610119140e-01  9.9999997610119140e-01  9.9999997610119140e-01  4.8588456857543644e-01  8.5876640327702702e-01  9.8575668790719384e-01  9.7226345598155994e-01  9.5949007514805640e-01  9.4962942156922958e-01  9.4301062635019706e-01  9.4098339630049599e-01  9.3898384134178758e-01  9.2255192150471088e-01  8.7866754878878273e-01  8.4476379883114894e-01  9.0112720472831864e-01  1.0116978770476175e+00  1.0886897455057625e+00  1.1133984209256382e+00  1.1182022127808258e+00  1.1157101584083922e+00  1.1071827207659151e+00  1.0940722841504658e+00  1.0795766303004184e+00  1.0625592540747868e+00  1.0478416257254515e+00  1.0306472939283307e+00  1.0162679948424134e+00  9.9999997610119140e-01  9.9999997610119140e-01  9.9999997610119140e-01  9.9999997610119140e-01  9.9999997610119140e-01  9.9999997610119140e-01  9.9999997610119140e-01  1.0161161165508215e+00  1.0308825600138896e+00  1.0477708911434545e+00  1.0622069628906983e+00  1.0791652896787400e+00  1.0947044551361502e+00  1.1062061304702206e+00  1.1155834682198054e+00  1.1176537003960290e+00  1.1130811492508088e+00  1.0888092998468031e+00  1.0166653720774184e+00  9.0468609111838594e-01  8.4704637588512799e-01  8.8216628386850204e-01  9.2139794352773374e-01  9.3866453055104770e-01  9.4014148950953924e-01  9.4254916039496650e-01  9.4866154278441384e-01  9.5943144791722967e-01  9.7166624768053200e-01  9.8521872111762532e-01  9.9999997610119140e-01  9.9999997610119140e-01  9.9999997610119140e-01  9.9999997610119140e-01  9.9999997610119140e-01  9.9999997610119140e-01  9.9999997610119140e-01  4.9037834135130354e-01  5.0403016845566140e-01  5.1408712383061428e-01  5.3979019585518195e-01  5.6186833552330451e-01  6.0500435221600213e-01  6.2058215724235655e-01  6.6776056864435629e-01  6.8079053395440425e-01  7.3536350309406728e-01  7.6048847900675265e-01  8.2084474153936759e-01  8.5286429936444907e-01  8.9981347843874238e-01  9.3160924986169513e-01  9.5987183190702818e-01  9.7725135060715596e-01  9.7426687661652400e-01  9.5779529231536908e-01  9.3256410288035596e-01  9.0441328846249991e-01  8.7835100373649966e-01  8.5932679364067788e-01  8.4628635653863971e-01  8.4059070963825822e-01  8.3905127215171693e-01  8.4173291457530663e-01  8.4582907874112578e-01  8.5071011266166918e-01  8.5490833175084713e-01  8.5781014358984065e-01  8.5780344541028186e-01  8.5498718232543458e-01  8.5077287098071475e-01  8.4604494104481798e-01  8.4140796086892566e-01  8.3911049951412753e-01  8.3988833884243563e-01  8.4578091060135130e-01  8.5840603508183777e-01  8.7795898532211358e-01  9.0430599991808691e-01  9.3412020054232014e-01  9.5929004168509080e-01  9.7717785581568839e-01  9.7671438350527906e-01  9.6308279234004479e-01  9.3754022070606524e-01  8.9733900481493623e-01  8.7023433844498987e-01  8.2520507075915928e-01  7.6908619560111513e-01  7.1483866243577920e-01  7.0401201887385489e-01  6.4597294799377036e-01  6.2710683976129700e-01  5.9994390536143705e-01  5.6835544284459782e-01  5.3616608746030725e-01  5.2596787294166669e-01  5.0060902156328035e-01  4.9201170683900342e-01  1.0614349204258489e+00  9.4009351586420309e-01  9.1578491714754373e-01  9.2015649095016427e-01  9.1802010730347094e-01  9.5115662213255792e-01  8.8034389627448362e-01  9.2494059816367136e-01  9.2405122684117724e-01  7.2617599233439278e-01  9.3426091861401528e-01  7.2142796465219849e-01  1.0963623990674010e+00  9.4542042752229138e-01  9.4238598959571951e-01  8.6181224979899373e-01  8.2022001401115718e-01  8.5925599437697042e-01  9.3504520938668867e-01  8.4414007057469176e-01  8.4256923740278866e-01  8.6271423744916886e-01  1.0520542076531398e+00  7.9233054246341228e-01  8.5879959549938001e-01  9.0254600448467104e-01  9.6321888642986242e-01  8.2407795938233130e-01  8.7984293985893147e-01  9.2094240773788105e-01  8.6202318348050322e-01  8.7177031648149350e-01  8.1062990992058326e-01  8.2405022175546006e-01  8.2266035578050756e-01  8.1008292472448695e-01  1.0990196910009513e+00  1.1002447853460049e+00  7.6628524741975734e-01  1.0709010933255700e+00  9.1065597428281531e-01  1.0354017080146973e+00  7.4720590150085486e-01  9.5242492585036342e-01  9.2492023515946686e-01  1.0821411004640122e+00  9.7234136435644969e-01  1.0864924734928871e+00  1.0928394929950132e+00  8.4143611551280639e-01  8.4939751383159678e-01  8.9478502066111476e-01  7.5426417795839473e-01  8.9968115607340926e-01  9.1458355997688223e-01  1.1003632110400940e+00  8.8824311243456899e-01  8.7911578571042437e-01  9.2004125529444392e-01  9.2216803427462157e-01  1.0296400092695084e+00  9.5369404846256045e-01  9.6335732666105744e-01  9.4111140710843622e-01  7.0254752101235929e-01  9.1622870276259061e-01  9.2129809407951702e-01  8.1901191222917269e-01  1.1022846093435541e+00  8.6061051013481016e-01  7.7977701933608656e-01  7.4472730270259857e-01  8.3004640359061022e-01  1.0048279332745684e+00  1.0257220813637469e+00  8.3005528649247762e-01  9.2449450324710203e-01  1.0577826083570352e+00  8.5997752881612577e-01  1.0929921506646469e+00  1.0750104268207590e+00  8.4119285611507977e-01  9.7468021996784382e-01  9.9251140836827823e-01  9.4299913549803993e-01  8.5949778647458941e-01  9.1573251512271825e-01  8.7569614594685330e-01  8.5135474344553774e-01  1.0543818321557845e+00  9.0824514852809879e-01  9.3973329788726268e-01  6.7892245498397408e-01  8.9260349336018685e-01  9.0616725462616621e-01  1.0846688561494333e+00  9.4960625028440515e-01  6.7881854334123759e-01  1.0492170853040410e+00  8.9504322935628866e-01  9.0904635793290611e-01  9.1745397044861321e-01  9.1521710756685448e-01  1.0868196462486073e+00  1.0211381512160769e+00  8.2247765041262633e-01  1.1086008371543776e+00  9.4061849602617043e-01  9.3130375684366307e-01  9.6871116055447015e-01  1.1085903159718657e+00  8.4058690304882433e-01  7.7744935198047427e-01  1.0539445694483416e+00  9.4318387873851706e-01  8.3632285576876875e-01  8.4872164612304413e-01  1.0381550107245312e+00  1.0912953883748160e+00  8.2861779891392062e-01  9.5504545190902168e-01  8.4209097487441975e-01  1.1002395997589325e+00  1.1093173906983260e+00  9.2438246768306076e-01  9.1314490650862934e-01  8.8812751179085203e-01  9.4194538964553309e-01  8.9594272946931353e-01  9.8384762261216552e-01  7.9854259895431134e-01  1.0888697329082206e+00  9.3633068895277594e-01  8.6211956299121384e-01  9.3469859249133636e-01  8.9270651305100923e-01  1.1004966694191984e+00  8.9027097887791062e-01  9.4146815789524763e-01  1.1100448347749556e+00  7.6269147438578500e-01  6.7755590525227416e-01  8.7049626254641166e-01  8.8700258404999077e-01  9.8653682194873160e-01  1.0231158581588449e+00  8.4599164431861362e-01  8.8437898313107410e-01  9.1499989030055551e-01  9.1097857270795946e-01  8.4594645246326305e-01  8.7409427774382176e-01  6.9866864547431340e-01  7.7059002230774976e-01  8.5367971134332576e-01  1.0307126612947721e+00  1.0205214487307734e+00  8.9435151202952201e-01  1.0915849961989332e+00  7.9453996574194086e-01  9.8276552473933565e-01  7.8661851970590524e-01  1.0619987704999996e+00  1.0738736576183272e+00  8.4760290212400846e-01  9.1239302154055457e-01  7.6370070303354309e-01  9.3276533588379940e-01  1.0192790063785193e+00  8.3050060430237249e-01  7.8355612566728694e-01  7.9705633041107415e-01  8.0552460904439005e-01  1.0930296407619526e+00  9.4006982654941829e-01  7.7713032941174409e-01  9.7942605600105404e-01  9.1165987858285069e-01  6.1829885192606859e-01  6.5093660406333620e-01  7.5815151978332418e-01  1.0178234733209157e+00  9.2918287069081373e-01  1.0657423806600699e+00  8.7140251003135893e-01  9.0991096611195910e-01  9.5598331428585381e-01  1.0421605466562198e+00  8.4234266744730002e-01  7.4880372771589221e-01  8.0680304654941559e-01  6.1941783681222651e-01  8.6426136713542834e-01  8.3939844962338128e-01  1.0714263963733233e+00  1.0376641539891873e+00  9.3955219665880230e-01  8.9256854598394197e-01  8.3518220337246762e-01  9.3940207490952854e-01  8.7435894032830197e-01  8.7151979787447265e-01  9.4412116979797789e-01  9.1149215108173554e-01  8.5364165826395166e-01  7.7265373293074424e-01  9.2845540524444348e-01  1.0374580762550423e+00  8.3691642020593870e-01  8.4316097429378689e-01  1.1027165155635259e+00  1.1001263768377640e+00  9.6463225938325536e-01  8.3881930640470159e-01  9.2547161986004345e-01  8.4502733510482730e-01  1.0723480462761978e+00  9.2239939878079114e-01  8.9026262694263902e-01  8.5050531567832321e-01  1.1027103555916107e+00  7.9520249891852746e-01  9.2812598872069463e-01  6.1333147991148673e-01  6.4600835306578852e-01  9.5170791515798647e-01  9.5139966898219730e-01  1.0985109028272813e+00  9.4248145932236838e-01  8.4474817422790527e-01  6.5306311036962206e-01  8.8780742187439587e-01  8.5721956640592967e-01  8.4779088499295197e-01  9.6172171873820200e-01  1.1047848198306418e+00  7.3872507477926175e-01  1.0444897131589677e+00  5.9165533001436743e-01  1.0994175378478230e+00  8.6899723345462576e-01  8.5732121019849117e-01  8.6176194409427509e-01  1.0393643670127395e+00  7.0270649021687748e-01  9.4131680895540581e-01  8.4005611332845387e-01  9.8553030448950096e-01  1.0984152887515686e+00  6.7349408091323171e-01  8.3775528704537849e-01  7.0650887027509268e-01  9.8852648174525393e-01  8.9287016807950736e-01  9.3332403104599737e-01  9.1326660474776877e-01  9.3132167382350151e-01  9.2219773545602712e-01  8.8811785205801108e-01  9.3038766707672871e-01  8.1776771880020027e-01  8.8681237984123273e-01  9.2701868226579642e-01  8.4734597869805961e-01  8.8942327951987776e-01  8.3800843436196304e-01  8.5146252638810449e-01  8.0548431941104393e-01  9.0605079056026205e-01  9.5621491130832525e-01  9.4594733975694367e-01  8.1853348244667234e-01  9.3488364733415341e-01  9.3819141249719695e-01  9.4228392325942678e-01  9.2781201561697613e-01  7.3042791592519041e-01  1.0617161218322977e+00  1.0445239737293084e+00  7.9234422462504062e-01  9.1836644431213199e-01  8.6836193145674956e-01  7.9306797178726363e-01  8.4011264560698617e-01  9.4229731578662623e-01  8.1849021746992867e-01  8.7669235061137130e-01  7.4182142352040914e-01  1.1081678279268474e+00  9.2654425474030389e-01  8.5509521744299588e-01  1.0500177083215361e+00  9.4522411716606569e-01  9.3439461147125558e-01  8.2553635397682334e-01  8.0911854533283112e-01  9.6863362676349130e-01  9.3816358925016274e-01  7.1307379276698790e-01  1.0130996566469657e+00  9.6548590726862382e-01  8.5923479412107817e-01  9.7845318822482530e-01  1.0809711713764982e+00  8.4760421860216528e-01  8.5931398526877334e-01  8.2906894175658341e-01  1.0556084447679315e+00  9.3137886266518266e-01  9.2677576128058692e-01  9.2786767640287182e-01  1.0117182313988082e+00  8.0317743694977251e-01  8.3469997010045871e-01  1.1031885367757037e+00  8.5538159548535886e-01  9.4545823283903285e-01  9.9305393420055543e-01  8.6535786976265183e-01  1.0138616271009715e+00  1.0922282277922286e+00  7.6187142713699252e-01  8.4932464814424635e-01  9.5994469281460904e-01  8.0986438201410693e-01  8.8261077193317861e-01  5.9582602938794604e-01  8.5022087538394542e-01  1.1148326610632393e+00  1.0881418565628944e+00  1.0786306098519174e+00  1.0938561126545197e+00  9.6102749751304439e-01  1.0800547212721103e+00  7.4662490586756614e-01  8.9949886824539838e-01  7.8800258358122022e-01  9.2989505232079928e-01  8.4220178820650982e-01  9.8314377971436884e-01  8.7161692357252596e-01  1.0024881783712682e+00  1.0949975135566516e+00  8.7206785309417678e-01  1.0983230026192703e+00  9.5236948137743660e-01  1.0696722008956390e+00  1.1109002735202582e+00  9.7718400697808394e-01  8.6048518907719485e-01  9.6963462113992915e-01  9.5646619881178041e-01  8.6382127687232402e-01  1.0915053364739444e+00  1.0216326563772853e+00  7.7718039358045832e-01  1.0784138709971838e+00  5.8000300627683032e-01  8.9030291763692115e-01  9.0353478689000299e-01  9.3720306792309238e-01  8.4889566601932320e-01  1.0126230791360462e+00  1.0554072423794034e+00  1.1000487779736130e+00  1.1055667918102983e+00  9.4715755147405456e-01  1.0299411353371284e+00  1.1140070148127919e+00  9.0760038688556144e-01  8.9778634678728475e-01  1.1007660886039159e+00  9.4290131339439454e-01  8.8824516169717382e-01  1.0654182721897347e+00  9.2220204852299703e-01  9.3078221035880326e-01  8.2188438477139059e-01  8.5047113568605137e-01  9.0187507999193095e-01  9.0713560179202002e-01  9.1811102831998104e-01  9.3375363322577309e-01  9.4756547216384113e-01  8.6694082057995459e-01  8.9660862030122412e-01  1.0408521888443600e+00  8.2692222216741296e-01  1.0665758835584793e+00  9.1524760572896613e-01  8.9433957941473019e-01  9.1442158699431419e-01  8.7956570068864603e-01  9.4245518595072231e-01  1.0410521725297888e+00  8.2803139936455128e-01  8.9296542004941004e-01  9.2573129527118891e-01  8.4843485285787779e-01  8.8792312814948571e-01  1.0417091509278946e+00  8.6623802036483855e-01  8.3922375515595171e-01  7.3598513064410898e-01  8.7141185565695201e-01  9.4467254379777743e-01  1.0712264152463962e+00  9.4401025017266116e-01  9.2287581018987175e-01  8.4320969814127866e-01  8.7567319161246870e-01  9.3394250293962189e-01  8.4041361504992018e-01  1.0111146176388726e+00  9.8964561629097092e-01  9.7546390603311295e-01  1.0870318503213630e+00  1.1135472237878845e+00  1.0717836403109107e+00  1.0246302121030735e+00  9.8885905420815834e-01  9.8996671376847301e-01  1.1053186249072611e+00  9.4217717639559029e-01  1.1136781322504277e+00  9.4190625421527430e-01  9.5532493127398543e-01  8.1828148872199447e-01  9.5053585073306979e-01  1.0869650135881979e+00  9.0083925015611033e-01  7.8016607596150878e-01  9.3688338912733138e-01  1.0274953906145463e+00  9.3754988142017137e-01  1.1046388782511445e+00  1.0648626478736303e+00  8.4751880656714151e-01  1.0821019725249050e+00  1.0988555270891882e+00  1.0675902813909075e+00  9.1071297375318816e-01  1.0802536462417962e+00  9.1886335751474491e-01  8.6285025590049580e-01  1.0639756502379909e+00  8.7228779801400835e-01  9.5074114811297916e-01  1.0091620316589083e+00  8.2482529425850637e-01  7.3706261946053186e-01  8.2426898437923513e-01  9.1343131319913318e-01  1.0525341879673120e+00  8.2666408650566969e-01  1.0993669874531857e+00  9.1106921510168504e-01  9.6260989992135992e-01  5.9923870142999192e-01  9.4897743967268178e-01  8.4644394063183304e-01  7.8018108546905984e-01  9.6759818052221858e-01  1.0087584439724941e+00  9.8758273760989135e-01  8.6479554711250006e-01  1.0099223908220840e+00  1.0613638197555395e+00  1.0979586246959276e+00  8.6489833720227649e-01  8.1901321476627909e-01  9.1179412458259124e-01  8.7478374315212393e-01  7.6723515396145614e-01  9.1346026726599339e-01  9.6632660576943730e-01  6.9343117759586048e-01  9.9181826243578997e-01  9.4625898776287198e-01  7.5972638074726728e-01  9.0535814281854299e-01  9.7381923278151006e-01  7.5268505587717538e-01  7.6078722853708758e-01  9.8995911198823539e-01  1.0499520836145573e+00  1.1057874469447566e+00  9.4183784939541171e-01  8.8032790950666973e-01  8.5347157823021302e-01  9.7476625865838828e-01  7.3492897807152557e-01  8.9201222141114345e-01  9.6893355516732871e-01  </DataArray> 
</PointData> 
</Piece>
</UnstructuredGrid>
</VTKFile>