<?xml version="1.0"?>
<VTKFile type="UnstructuredGrid"  version="0.1"  >
<UnstructuredGrid>
<Piece  NumberOfPoints="406" NumberOfCells="722">
<Points>
<DataArray  type="Float64"  NumberOfComponents="3"  format="ascii">-6 -2 0  -6 2 0  6 2 0  6 -2 0  -2.8 0 0  -1.2 0 0  -5.500000000001853 -2 0  -5.000000000003705 -2 0  -4.500000000005556 -2 0  -4.000000000007409 -2 0  -3.50000000000926 -2 0  -3.000000000011112 -2 0  -2.500000000012963 -2 0  -2.000000000014814 -2 0  -1.500000000016665 -2 0  -1.000000000018516 -2 0  -0.5000000000203677 -2 0  -2.204547655537681e-11 -2 0  0.4999999999796305 -2 0  0.9999999999814779 -2 0  1.499999999983327 -2 0  1.999999999985175 -2 0  2.499999999987029 -2 0  2.999999999988882 -2 0  3.499999999990735 -2 0  3.999999999992589 -2 0  4.49999999999444 -2 0  4.999999999996293 -2 0  5.499999999998147 -2 0  6 -1.500000000001387 0  6 -1.000000000002774 0  6 -0.5000000000041616 0  6 -5.505595979116151e-12 0  6 0.4999999999958384 0  6 0.9999999999972258 0  6 1.499999999998613 0  5.500000000001853 2 0  5.000000000003705 2 0  4.500000000005556 2 0  4.000000000007409 2 0  3.50000000000926 2 0  3.000000000011112 2 0  2.500000000012963 2 0  2.000000000014814 2 0  1.500000000016665 2 0  1.000000000018516 2 0  0.5000000000203677 2 0  2.204547655537681e-11 2 0  -0.4999999999796305 2 0  -0.9999999999814779 2 0  -1.499999999983327 2 0  -1.999999999985175 2 0  -2.499999999987029 2 0  -2.999999999988882 2 0  -3.499999999990735 2 0  -3.999999999992589 2 0  -4.49999999999444 2 0  -4.999999999996293 2 0  -5.499999999998147 2 0  -6 1.500000000001387 0  -6 1.000000000002774 0  -6 0.5000000000041616 0  -6 5.505595979116151e-12 0  -6 -0.4999999999958384 0  -6 -0.9999999999972258 0  -6 -1.499999999998613 0  -2.776753453941174 -0.1914525314286965 0  -2.708364820523325 -0.3717785376335722 0  -2.598808598538216 -0.5304981265911284 0  -2.454451797386757 -0.65838709271366 0  -2.283683909636528 -0.748012994147384 0  -2.096429344207466 -0.7941670992780535 0  -1.903570655798842 -0.7941670992788195 0  -1.716316090368095 -0.7480129941491368 0  -1.545548202616307 -0.6583870927157747 0  -1.401191401463757 -0.530498126593356 0  -1.291635179477527 -0.371778537635196 0  -1.223246546059047 -0.1914525314295925 0  -1.223246546058803 0.1914525314286035 0  -1.291635179476594 0.3717785376334188 0  -1.401191401461634 0.5304981265909601 0  -1.545548202612898 0.6583870927134221 0  -1.716316090363093 0.7480129941472402 0  -1.903570655792394 0.7941670992780367 0  -2.096429344201276 0.7941670992788055 0  -2.283683909631911 0.7480129941491347 0  -2.454451797383697 0.6583870927157729 0  -2.598808598536385 0.530498126593196 0  -2.70836482052258 0.3717785376349917 0  -2.776753453940975 0.1914525314295042 0  0.4588466633941945 0.2704149791022056 0  -4.424312812173863 0.2760319703992994 0  -3.803977598762586 -0.6841584599595646 0  -0.1330968762779425 -0.6798763971615133 0  2.451109587541276 3.169800318630399e-13 0  -3.563610936250569 0.5929994091167295 0  4.204753319582647 0.2820669554523581 0  -0.4390897559348154 0.6178095532273566 0  -3.041446812595122 1.175550440315544 0  -0.9622132806516797 1.132103015222783 0  1.069493318942931 -0.773608156980569 0  -4.924330687080279 -0.7127064269610045 0  -3.024693497948964 -1.195179289656404 0  -0.9648749555625579 -1.256854520022574 0  -3.443624282349383 -0.2044158249759613 0  -0.5611500783757608 -0.1747080110423833 0  1.60270880116926 0.7487034276124258 0  3.488352576142236 -0.8228939860777884 0  4.816375011670135 -0.8163750116689444 0  3.243628045085357 0.8578172796997985 0  -4.228632884234073 1.228069101636678 0  -2.365220384435482 -1.356128547810356 0  -1.637465979486354 1.3571687267915 0  -1.642380978561139 -1.359365080147485 0  -2.362988915989869 1.356737096243695 0  -5.134120367293631 0.8356299802910161 0  2.077496878467794 -0.9514080034522553 0  4.960859291178299 0.9608592911785537 0  0.3293120056474302 1.148965409695154 0  -5.157560560414062 0.09447106214747865 0  -3.14779387667392 -0.6330563038825547 0  -3.148134455585257 0.4354299640428653 0  -0.8464439673630421 0.4159277415926296 0  -0.9918125625721008 -0.7191748422889824 0  -4.355349213295776 -1.234510499778242 0  1.582074659164868 -0.06850205959954866 0  2.400584045214166 1.204278622181321 0  5.102831660739063 0.03453404176596848 0  4.083259768981113 1.154272958349666 0  -3.992394834362243 -0.1621022234411988 0  0.4290302718942113 -1.225465289645401 0  -3.681487986394671 -1.310544246656267 0  -3.640289698916164 1.187023654838123 0  0.468851680921228 -0.447055967952278 0  3.315209904217932 0.05667935655546536 0  -2.541160649745046 -1.046980928586996 0  -1.45196684542695 1.044189935346116 0  -2.000844595891861 -1.207983108473125 0  -1.453092202970521 -1.061139264918894 0  -2.000050543938391 1.207806685704176 0  -2.548033154566413 1.04418993534851 0  4.13054585796652 -1.232871249381608 0  -0.3301617095463629 1.221692405319566 0  -0.2880491989587189 -1.359626628407983 0  -0.0758941643813178 0.132275811829787 0  2.826389221580753 -1.233168480096227 0  -2.922070412327736 0.7575752117792038 0  1.003070890178416 1.271347915034201 0  -5.319521816151902 -1.310543894393663 0  -1.070407062963812 0.7877698545098388 0  -4.562499863038985 -0.2302396981426722 0  -3.164226661545047 0.07179577787350272 0  -0.9091377812900333 0.132454654016971 0  4.116029045943655 -0.4851826871817362 0  5.316659189209927 -1.316659189208741 0  -0.9498828454673396 -0.4149758979014553 0  -4.037769805263969 0.6896174350675625 0  1.431664772855882 -1.327784137638992 0  -3.646693623568034 0.1600006358878044 0  -2.878371345483476 -0.7910345833001061 0  1.062603041385242 0.2894765870627741 0  -0.547955103783681 0.1635272504420374 0  -4.804809838419659 1.41016301576038 0  -3.042895319571192 -0.3694931303482478 0  -4.59252578392403 0.792267765362792 0  2.823271260730033 -0.5472430318427347 0  -4.28575390662405 -0.7521491832384866 0  -0.5524005545121191 -0.9037367558558163 0  1.815219025072439 1.388812135783969 0  -1.288398729718543 -0.8178399475601057 0  -5.424388493366639 1.35375165044146 0  -2.256991952837567 -1.049538527273222 0  -1.739586738723494 -1.052327527873255 0  -1.738827359988536 1.050180627239116 0  -2.257795730428802 1.049701225145305 0  -0.62222340523776 -0.5483611729237363 0  2.065188519029698 0.5424877383589943 0  0.1055865106318892 0.7347782870471022 0  1.013082573993895 -0.2061877611231605 0  -5.428323520618333 -0.4386412085227075 0  5.374041502384443 -0.5304401760993408 0  3.435185060219232 -1.377658617395091 0  -3.302377238490527 0.8841390072780534 0  -0.9902123298072768 -0.124175295282554 0  0.7186958547669859 0.8724503317343631 0  2.941237214953417 1.390391532351976 0  4.708037787864423 -1.340276032051348 0  5.395029680982659 1.395029680983341 0  3.591022587550188 1.348260650408605 0  2.759385971589342 0.4857447325740718 0  -0.6832705231418494 0.8879387563573758 0  5.437781298507145 0.5981501503262471 0  -2.698603003287285 1.617130043745112 0  -3.463358189947519 -1.013588318179017 0  1.710866040171871 -0.6978716337870808 0  3.642182982762737 0.4555704362064124 0  -2.699802128031161 -1.618310703146212 0  -1.3020054856637 1.619819977935582 0  -2.000000000004996 -1.566396763829867 0  -1.999999999994794 1.566396763830688 0  -1.247812462071684 -1.595232739507426 0  4.59429106759859 1.420052135572917 0  0.9448382581152466 -1.440259145469251 0  -0.116376100998861 -0.2606209011258676 0  -4.774521510507792 0.4245390872783272 0  -2.983910172370106 -0.1208000607277856 0  -3.353983741142061 1.576062863985777 0  -5.473352579109997 0.4917619255280954 0  -4.828650470275986 -1.493148538517745 0  4.639973657165532 -0.2833178611094909 0  -2.660279445404468 0.7699932347178977 0  -1.335045190775955 0.7744876666923373 0  -3.395669172689978 0.2584951122361346 0  2.279110606119369 -1.465899541383697 0  4.734317729212562 0.4520963557364723 0  -0.6334913028224612 1.584213953723378 0  2.121854101359879 -0.4289611127787379 0  -3.474459720833238 -0.4977581316675216 0  -1.066539898844178 0.3411379476537602 0  -3.361849707555382 -1.611428512420182 0  -4.099039818938317 0.3306400369415774 0  -2.935324777364672 0.354721898811665 0  -3.973578595052027 1.482940358734671 0  3.784450148635689 -0.0702780807301525 0  -1.191348122671212 -0.5614501189722798 0  -2.838672605956353 -0.5493179047027598 0  -1.184983441257359 0.5617520886612424 0  -2.811184099847449 0.5574240755049175 0  0.2702752249355158 -0.8003643570420809 0  -0.6945947797857237 -1.593893965175195 0  0.001175881878679056 1.504521009023778 0  0.6072931735145096 1.501814722697789 0  -3.991896293645949 -1.047264188412552 0  -3.734097395159253 -0.3261671578666079 0  -5.539652387691843 -0.8857154182585802 0  -4.395061924111849 1.563293728588296 0  0.2258327611651416 -0.08745142624872881 0  -3.774816634825771 0.8676973328379478 0  2.208484493569073 1.6256686312487 0  0.1309939514660535 -1.566169703482512 0  -5.551414360955331 0.9459842275970113 0  -4.04734138658365 -1.51163984963472 0  -4.947145019546805 -0.3299925153029702 0  4.320410447198621 0.6970857582435144 0  -4.707557346727139 -1.000565649857444 0  1.353711468973986 1.582551234446199 0  1.674156483558973 0.3266252271732694 0  -4.039105552973997 -0.4537604746027087 0  0.01051727619263377 -1.088858357362194 0  -0.2234942609176301 0.8619127912343982 0  -2.95903482691863 0.1219373374385197 0  -4.682467695920681 0.0804575682243254 0  5.535750224195656 -0.1525732643419722 0  -4.290083947414376 -0.0005258314026840717 0  1.136102562417988 0.7655312464039168 0  -2.816589394567214 0.9927597419785312 0  -2.645374456162409 -0.7645902451387543 0  4.18414576655837 1.624276131878667 0  0.7127337088822223 -0.9006358935856398 0  1.972418102153911 0.9727040774616764 0  -2.42199174813501 0.8591219219254587 0  -2.418604734200992 -0.8552987735117754 0  -5.573597213364169 -0.03612430678117123 0  2.024792870869397 0.05574071630590883 0  -1.578875191508968 0.861424470724936 0  -1.54706008231699 -0.8630049102346303 0  3.848662181064435 -1.569601980075533 0  -2.000000000003871 -0.9746445732264465 0  -1.99999999
[...]
<PointData  Scalars="f_24"> 
<DataArray  type="Float64"  Name="f_24"  format="ascii">6.0081284230170851e-01  6.0081284230170851e-01  0.0000000000000000e+00  0.0000000000000000e+00  1.1359180972183998e-01  5.1472098766444196e-01  5.5528750095098522e-01  5.1134909448692201e-01  4.6612245586851364e-01  4.2186374172102753e-01  3.7885190750588027e-01  3.4170631128457513e-01  3.1911200251621252e-01  3.5393428867037535e-01  4.3021900838814037e-01  4.9393450251903276e-01  5.1431751453008345e-01  5.0435095014142783e-01  4.7540356099898434e-01  4.3896198184948054e-01  3.9910802525811229e-01  3.5698517779644123e-01  3.1266919602037502e-01  2.6947199984777542e-01  2.2496457933607833e-01  1.7997357225596775e-01  1.3501814454190117e-01  9.0094493488743016e-02  4.5544524902951626e-02  0.0000000000000000e+00  0.0000000000000000e+00  0.0000000000000000e+00  0.0000000000000000e+00  0.0000000000000000e+00  0.0000000000000000e+00  0.0000000000000000e+00  4.5500929865103720e-02  9.0273047017552024e-02  1.3521318385380454e-01  1.8042482166970583e-01  2.2481285953409702e-01  2.6924839466522221e-01  3.1332547708349928e-01  3.5694481160023583e-01  3.9851847568412818e-01  4.3896210481585796e-01  4.7536798477263204e-01  5.0354354226506115e-01  5.1526558660917121e-01  4.9317478571382317e-01  4.3103571939709961e-01  3.5380970099863285e-01  3.1908336038627438e-01  3.4178990482655036e-01  3.7873819252895619e-01  4.2191839752144045e-01  4.6671664609818803e-01  5.1067043998544415e-01  5.5545350724957177e-01  6.0081284230170851e-01  6.0081284230170851e-01  6.0081284230170851e-01  6.0081284230170851e-01  6.0081284230170851e-01  6.0081284230170851e-01  6.0081284230170851e-01  1.1481647155194528e-01  1.1757748514257323e-01  1.4508464804365465e-01  2.0316828889292110e-01  2.7969004886747845e-01  3.7051138144376078e-01  4.5379406543714884e-01  5.1416951709743541e-01  5.3850336428611201e-01  5.3788841516275310e-01  5.2659619469539809e-01  5.1782765465834801e-01  5.1765903583642869e-01  5.2654232524953015e-01  5.3751413310422391e-01  5.3951364997371842e-01  5.1476787572761107e-01  4.5365919529288046e-01  3.7055240660249433e-01  2.8012990794599646e-01  2.0248585489808305e-01  1.4567114864019631e-01  1.1969521252783308e-01  1.1312519110245207e-01  4.6103156740159285e-01  4.5094433223329072e-01  3.9238722649323843e-01  4.9178746864780287e-01  3.1366487779851621e-01  3.5835032382465609e-01  1.6096511028981289e-01  4.9958173472227474e-01  3.4696888183597346e-01  4.8617124831145531e-01  4.2515938365188333e-01  5.0266823403515137e-01  3.4733180795751983e-01  4.8290928472797612e-01  3.1828462195942470e-01  5.0160001944742671e-01  3.8470434139464377e-01  2.2479209570647096e-01  1.0642257464961621e-01  2.4645632155640623e-01  4.4373179815782465e-01  3.3136078066025298e-01  3.9992905210167190e-01  3.9911513001505589e-01  3.3149297255324578e-01  5.2236669021962279e-01  3.4692863242780619e-01  9.3573776133726180e-02  4.7587779962102977e-01  5.2261280936422483e-01  2.9895420190872107e-01  2.7205045816487267e-01  5.0712440562674432e-01  5.0265990140535777e-01  4.5477833309432519e-01  3.8397939914512375e-01  3.2029874840699429e-01  8.0612407115317961e-02  1.7230656403839417e-01  4.0097650723527167e-01  4.7094871548351563e-01  3.9966395665387233e-01  3.9475436323178859e-01  4.6153893261709966e-01  2.3942186404013918e-01  2.9973627771501310e-01  4.4982339975249058e-01  3.4713042762175950e-01  4.4802200327749186e-01  3.4724974558569405e-01  2.9898559345309217e-01  1.6799651145306918e-01  4.9973828262111125e-01  5.0009886036417328e-01  4.8634079891833382e-01  2.8344416232928771e-01  2.7890845771091749e-01  4.3331905238013613e-01  5.3986235733379073e-01  4.9735458106101615e-01  4.6489094179798990e-01  2.4906797766844313e-01  5.0969575559033331e-01  1.6891264894974631e-01  6.1554920692158434e-02  5.0950560763973596e-01  4.1703371608699152e-01  4.0115473406191748e-01  3.5218149528865328e-01  2.7904347277051134e-01  4.2263798287538767e-01  5.0131107552663190e-01  4.9432691200386425e-01  2.3595185190195855e-01  4.7239375748201073e-01  2.8251344476592605e-01  4.4317305479827318e-01  5.0039316595834238e-01  3.7015593187826712e-01  4.9473093614755626e-01  5.4923397899440274e-01  3.0816791667183391e-01  4.0728948077694815e-01  4.0784540555196275e-01  3.0815343462839934e-01  5.0286768964078687e-01  3.4657484376633552e-01  4.8289411301805790e-01  4.2577909826305244e-01  5.4864252810614544e-01  5.6292897473645409e-02  2.3003282683322387e-01  3.4707463194218546e-01  5.1182969318224814e-01  4.4999046379036722e-01  2.7361236311170012e-01  1.1630582313827342e-01  5.4569158331870461e-02  2.1622481215896122e-01  2.8793653666321273e-01  5.0027042909274466e-01  5.0600989235518860e-02  3.4376420994534973e-01  3.7286747758433364e-01  3.7598813189242253e-01  2.1090767563394361e-01  3.4374851670570933e-01  4.4769340411984004e-01  3.5972139280084942e-01  3.5976194181939203e-01  4.5492743271380243e-01  1.2657585112576603e-01  4.3871444254934366e-01  4.8825224328823191e-01  4.8691991205210672e-01  1.9029888732391889e-01  3.7743324711913806e-01  5.5268976476970511e-01  4.9645439074703240e-01  1.2208693666075969e-01  2.3998765513369583e-01  5.0168748983086797e-01  3.1264544439105557e-01  3.3119717706829888e-01  1.1370648885119515e-01  4.9842113954036588e-01  3.4157590134211002e-01  3.3972692868901105e-01  5.1460471264080010e-01  3.7714749172811030e-01  4.1582027534293114e-01  1.9896797202462696e-01  4.2366465993031416e-01  1.9817421884891009e-01  5.1632074842379438e-01  2.1164261484329613e-01  5.1651310396510719e-01  2.0472189732971652e-01  4.7588100636421682e-01  4.9797087856389977e-01  4.9310014327756979e-01  4.6175448023529270e-01  4.2120807660286602e-01  3.6979654406351731e-01  5.5928008598903101e-01  4.5870216015201548e-01  4.7282013318434524e-01  3.9584559642907180e-01  3.3757841300885127e-01  4.8910548324040920e-01  5.6033410443326725e-01  4.2957446761801260e-01  5.0312355214551641e-01  1.5082652645690642e-01  4.8459269481275641e-01  4.0824027179539235e-01  3.7741613471338770e-01  4.1137200992965489e-01  4.9014069913299640e-01  4.9628589572730192e-01  1.8018600400083076e-01  4.7666439550523509e-01  4.1721021416628944e-02  4.3521438115452143e-01  4.2024234824074436e-01  3.0871827697889209e-01  2.3678972972626541e-01  1.6358953998800907e-01  4.5073747875846065e-01  3.5577198129224080e-01  2.5990441311461104e-01  2.6010386227571036e-01  5.6190599817157627e-01  3.4895406919836841e-01  4.8108889998181087e-01  4.8237630162217671e-01  1.9331865804034898e-01  3.6605746753900970e-01  3.6611101289172643e-01  3.3595343197588967e-01  2.1073240821905406e-01  4.7636578610868929e-01  4.4749446972879203e-01  3.5539984329009178e-02  3.7442846793143407e-02  2.8282980638359101e-01  4.5382327759992164e-01  4.7911106456301583e-01  3.0884386530315344e-01  1.4607765884232479e-01  1.5720716537780915e-01  3.7567939992857607e-01  4.7934193149324755e-01  2.9205893516960485e-01  2.7716563738719913e-01  3.3641530740590170e-01  3.0311863914717546e-01  1.8742545023657287e-01  2.4362164404978495e-01  9.0212488209106545e-02  4.9539888871830934e-01  4.8954263789312785e-01  5.0624400335117337e-01  4.4996051128914066e-01  2.9086023484088619e-01  3.3493054637663472e-01  4.6472020139796322e-01  3.7973038100199519e-01  5.6424119172036469e-01  2.5298229152987484e-01  5.0652473581027302e-01  4.9487336216846245e-01  3.7037722457188454e-01  4.9864504427665307e-01  4.6325132414370057e-01  2.6247072557864537e-01  5.0396930833861409e-01  4.1406878755578247e-01  3.4223887734005787e-01  3.9793865714237175e-01  3.9874276180474810e-01  3.4227227212168349e-01  3.9888704037343659e-01  3.7125103603602427e-01  2.4737339914914161e-01  4.9684382386870307e-01  3.5693315303462411e-02  5.1956325696182115e-01  2.3785284033762891e-01  4.0191250641706805e-01  4.5617918196966434e-01  4.0523839709913367e-01  1.2935960611798397e-01  3.1907792097165272e-01  4.4019024095804954e-01  5.2537498190999810e-01  4.7254054483216340e-01  5.3062182652118672e-01  3.0670306881808601e-01  2.6557363126017358e-01  4.7655676061277458e-01  2.0442041715664436e-01  5.0243761596068381e-01  4.0108310719208101e-01  4.4743536781166809e-01  4.9777225590354363e-01  5.1388299174723207e-01  3.7995809049822013e-02  8.5095496980771151e-02  5.1737621814782209e-01  5.0274255714684357e-01  8.7491804974156290e-02  2.5871981907574393e-01  5.2008783033534300e-01  3.0016343905738979e-01  4.4392746024198948e-01  3.5442441615402287e-01  4.1967644896981776e-01  5.7339733324682440e-01  4.9719658050956694e-01  4.4533900619742511e-01  7.4421056437885172e-02  1.2676362981772171e-01  1.6822509789528986e-01  5.0374077324235433e-01  4.6492597440885580e-01  4.3966328501838958e-01  5.6867345987400675e-01  1.9796328999574209e-01  1.5478422532252159e-01  3.9917950409672193e-01  3.1229574133435134e-01  5.1822019057322155e-01  3.0705367717119191e-02  5.0582736714724585e-01  3.0678062740298467e-01  3.1577074699325519e-01  4.9636013763588926e-01  4.0845544057492411e-01  2.5192925809870675e-01  4.2424577826185261e-01  4.9164831141083554e-01  5.7721448519587704e-01  5.0818053487510551e-01  3.5836547853505557e-01  3.9020467364529099e-01  4.3751543202219972e-01  3.6718188711549660e-01  2.0122589020646880e-01  4.7997829542259712e-01  2.6254538034031175e-02  5.7728596531031873e-01  5.2824707641179436e-01  3.7685061075826592e-01  3.5489237070045998e-01  3.6986254853740635e-01  4.9039449684166980e-01  4.8188954152167457e-01  3.3089364799184079e-01  3.9600227668141069e-01  4.6961159430043165e-01  1.8260142464991075e-01  3.2032743198230668e-01  8.2201451340518733e-02  5.2080016935613027e-01  3.5834231119126791e-01  4.9860659921165718e-01  4.9795654037045167e-01  4.9795189755244174e-01  2.4660977233822087e-01  3.1256831760751219e-01  3.1283299720661761e-01  4.4881484706052799e-01  4.4976791897087642e-01  4.0138347053970114e-01  3.6815200320197566e-01  </DataArray> 
</PointData> 
</Piece>
</UnstructuredGrid>
</VTKFile>