<?xml version="1.0"?>
<VTKFile type="UnstructuredGrid"  version="0.1"  >
<UnstructuredGrid>
<Piece  NumberOfPoints="406" NumberOfCells="722">
<Points>
<DataArray  type="Float64"  NumberOfComponents="3"  format="ascii">-6 -2 0  -6 2 0  6 2 0  6 -2 0  -2.8 0 0  -1.2 0 0  -5.500000000001853 -2 0  -5.000000000003705 -2 0  -4.500000000005556 -2 0  -4.000000000007409 -2 0  -3.50000000000926 -2 0  -3.000000000011112 -2 0  -2.500000000012963 -2 0  -2.000000000014814 -2 0  -1.500000000016665 -2 0  -1.000000000018516 -2 0  -0.5000000000203677 -2 0  -2.204547655537681e-11 -2 0  0.4999999999796305 -2 0  0.9999999999814779 -2 0  1.499999999983327 -2 0  1.999999999985175 -2 0  2.499999999987029 -2 0  2.999999999988882 -2 0  3.499999999990735 -2 0  3.999999999992589 -2 0  4.49999999999444 -2 0  4.999999999996293 -2 0  5.499999999998147 -2 0  6 -1.500000000001387 0  6 -1.000000000002774 0  6 -0.5000000000041616 0  6 -5.505595979116151e-12 0  6 0.4999999999958384 0  6 0.9999999999972258 0  6 1.499999999998613 0  5.500000000001853 2 0  5.000000000003705 2 0  4.500000000005556 2 0  4.000000000007409 2 0  3.50000000000926 2 0  3.000000000011112 2 0  2.500000000012963 2 0  2.000000000014814 2 0  1.500000000016665 2 0  1.000000000018516 2 0  0.5000000000203677 2 0  2.204547655537681e-11 2 0  -0.4999999999796305 2 0  -0.9999999999814779 2 0  -1.499999999983327 2 0  -1.999999999985175 2 0  -2.499999999987029 2 0  -2.999999999988882 2 0  -3.499999999990735 2 0  -3.999999999992589 2 0  -4.49999999999444 2 0  -4.999999999996293 2 0  -5.499999999998147 2 0  -6 1.500000000001387 0  -6 1.000000000002774 0  -6 0.5000000000041616 0  -6 5.505595979116151e-12 0  -6 -0.4999999999958384 0  -6 -0.9999999999972258 0  -6 -1.499999999998613 0  -2.776753453941174 -0.1914525314286965 0  -2.708364820523325 -0.3717785376335722 0  -2.598808598538216 -0.5304981265911284 0  -2.454451797386757 -0.65838709271366 0  -2.283683909636528 -0.748012994147384 0  -2.096429344207466 -0.7941670992780535 0  -1.903570655798842 -0.7941670992788195 0  -1.716316090368095 -0.7480129941491368 0  -1.545548202616307 -0.6583870927157747 0  -1.401191401463757 -0.530498126593356 0  -1.291635179477527 -0.371778537635196 0  -1.223246546059047 -0.1914525314295925 0  -1.223246546058803 0.1914525314286035 0  -1.291635179476594 0.3717785376334188 0  -1.401191401461634 0.5304981265909601 0  -1.545548202612898 0.6583870927134221 0  -1.716316090363093 0.7480129941472402 0  -1.903570655792394 0.7941670992780367 0  -2.096429344201276 0.7941670992788055 0  -2.283683909631911 0.7480129941491347 0  -2.454451797383697 0.6583870927157729 0  -2.598808598536385 0.530498126593196 0  -2.70836482052258 0.3717785376349917 0  -2.776753453940975 0.1914525314295042 0  0.4588466633941945 0.2704149791022056 0  -4.424312812173863 0.2760319703992994 0  -3.803977598762586 -0.6841584599595646 0  -0.1330968762779425 -0.6798763971615133 0  2.451109587541276 3.169800318630399e-13 0  -3.563610936250569 0.5929994091167295 0  4.204753319582647 0.2820669554523581 0  -0.4390897559348154 0.6178095532273566 0  -3.041446812595122 1.175550440315544 0  -0.9622132806516797 1.132103015222783 0  1.069493318942931 -0.773608156980569 0  -4.924330687080279 -0.7127064269610045 0  -3.024693497948964 -1.195179289656404 0  -0.9648749555625579 -1.256854520022574 0  -3.443624282349383 -0.2044158249759613 0  -0.5611500783757608 -0.1747080110423833 0  1.60270880116926 0.7487034276124258 0  3.488352576142236 -0.8228939860777884 0  4.816375011670135 -0.8163750116689444 0  3.243628045085357 0.8578172796997985 0  -4.228632884234073 1.228069101636678 0  -2.365220384435482 -1.356128547810356 0  -1.637465979486354 1.3571687267915 0  -1.642380978561139 -1.359365080147485 0  -2.362988915989869 1.356737096243695 0  -5.134120367293631 0.8356299802910161 0  2.077496878467794 -0.9514080034522553 0  4.960859291178299 0.9608592911785537 0  0.3293120056474302 1.148965409695154 0  -5.157560560414062 0.09447106214747865 0  -3.14779387667392 -0.6330563038825547 0  -3.148134455585257 0.4354299640428653 0  -0.8464439673630421 0.4159277415926296 0  -0.9918125625721008 -0.7191748422889824 0  -4.355349213295776 -1.234510499778242 0  1.582074659164868 -0.06850205959954866 0  2.400584045214166 1.204278622181321 0  5.102831660739063 0.03453404176596848 0  4.083259768981113 1.154272958349666 0  -3.992394834362243 -0.1621022234411988 0  0.4290302718942113 -1.225465289645401 0  -3.681487986394671 -1.310544246656267 0  -3.640289698916164 1.187023654838123 0  0.468851680921228 -0.447055967952278 0  3.315209904217932 0.05667935655546536 0  -2.541160649745046 -1.046980928586996 0  -1.45196684542695 1.044189935346116 0  -2.000844595891861 -1.207983108473125 0  -1.453092202970521 -1.061139264918894 0  -2.000050543938391 1.207806685704176 0  -2.548033154566413 1.04418993534851 0  4.13054585796652 -1.232871249381608 0  -0.3301617095463629 1.221692405319566 0  -0.2880491989587189 -1.359626628407983 0  -0.0758941643813178 0.132275811829787 0  2.826389221580753 -1.233168480096227 0  -2.922070412327736 0.7575752117792038 0  1.003070890178416 1.271347915034201 0  -5.319521816151902 -1.310543894393663 0  -1.070407062963812 0.7877698545098388 0  -4.562499863038985 -0.2302396981426722 0  -3.164226661545047 0.07179577787350272 0  -0.9091377812900333 0.132454654016971 0  4.116029045943655 -0.4851826871817362 0  5.316659189209927 -1.316659189208741 0  -0.9498828454673396 -0.4149758979014553 0  -4.037769805263969 0.6896174350675625 0  1.431664772855882 -1.327784137638992 0  -3.646693623568034 0.1600006358878044 0  -2.878371345483476 -0.7910345833001061 0  1.062603041385242 0.2894765870627741 0  -0.547955103783681 0.1635272504420374 0  -4.804809838419659 1.41016301576038 0  -3.042895319571192 -0.3694931303482478 0  -4.59252578392403 0.792267765362792 0  2.823271260730033 -0.5472430318427347 0  -4.28575390662405 -0.7521491832384866 0  -0.5524005545121191 -0.9037367558558163 0  1.815219025072439 1.388812135783969 0  -1.288398729718543 -0.8178399475601057 0  -5.424388493366639 1.35375165044146 0  -2.256991952837567 -1.049538527273222 0  -1.739586738723494 -1.052327527873255 0  -1.738827359988536 1.050180627239116 0  -2.257795730428802 1.049701225145305 0  -0.62222340523776 -0.5483611729237363 0  2.065188519029698 0.5424877383589943 0  0.1055865106318892 0.7347782870471022 0  1.013082573993895 -0.2061877611231605 0  -5.428323520618333 -0.4386412085227075 0  5.374041502384443 -0.5304401760993408 0  3.435185060219232 -1.377658617395091 0  -3.302377238490527 0.8841390072780534 0  -0.9902123298072768 -0.124175295282554 0  0.7186958547669859 0.8724503317343631 0  2.941237214953417 1.390391532351976 0  4.708037787864423 -1.340276032051348 0  5.395029680982659 1.395029680983341 0  3.591022587550188 1.348260650408605 0  2.759385971589342 0.4857447325740718 0  -0.6832705231418494 0.8879387563573758 0  5.437781298507145 0.5981501503262471 0  -2.698603003287285 1.617130043745112 0  -3.463358189947519 -1.013588318179017 0  1.710866040171871 -0.6978716337870808 0  3.642182982762737 0.4555704362064124 0  -2.699802128031161 -1.618310703146212 0  -1.3020054856637 1.619819977935582 0  -2.000000000004996 -1.566396763829867 0  -1.999999999994794 1.566396763830688 0  -1.247812462071684 -1.595232739507426 0  4.59429106759859 1.420052135572917 0  0.9448382581152466 -1.440259145469251 0  -0.116376100998861 -0.2606209011258676 0  -4.774521510507792 0.4245390872783272 0  -2.983910172370106 -0.1208000607277856 0  -3.353983741142061 1.576062863985777 0  -5.473352579109997 0.4917619255280954 0  -4.828650470275986 -1.493148538517745 0  4.639973657165532 -0.2833178611094909 0  -2.660279445404468 0.7699932347178977 0  -1.335045190775955 0.7744876666923373 0  -3.395669172689978 0.2584951122361346 0  2.279110606119369 -1.465899541383697 0  4.734317729212562 0.4520963557364723 0  -0.6334913028224612 1.584213953723378 0  2.121854101359879 -0.4289611127787379 0  -3.474459720833238 -0.4977581316675216 0  -1.066539898844178 0.3411379476537602 0  -3.361849707555382 -1.611428512420182 0  -4.099039818938317 0.3306400369415774 0  -2.935324777364672 0.354721898811665 0  -3.973578595052027 1.482940358734671 0  3.784450148635689 -0.0702780807301525 0  -1.191348122671212 -0.5614501189722798 0  -2.838672605956353 -0.5493179047027598 0  -1.184983441257359 0.5617520886612424 0  -2.811184099847449 0.5574240755049175 0  0.2702752249355158 -0.8003643570420809 0  -0.6945947797857237 -1.593893965175195 0  0.001175881878679056 1.504521009023778 0  0.6072931735145096 1.501814722697789 0  -3.991896293645949 -1.047264188412552 0  -3.734097395159253 -0.3261671578666079 0  -5.539652387691843 -0.8857154182585802 0  -4.395061924111849 1.563293728588296 0  0.2258327611651416 -0.08745142624872881 0  -3.774816634825771 0.8676973328379478 0  2.208484493569073 1.6256686312487 0  0.1309939514660535 -1.566169703482512 0  -5.551414360955331 0.9459842275970113 0  -4.04734138658365 -1.51163984963472 0  -4.947145019546805 -0.3299925153029702 0  4.320410447198621 0.6970857582435144 0  -4.707557346727139 -1.000565649857444 0  1.353711468973986 1.582551234446199 0  1.674156483558973 0.3266252271732694 0  -4.039105552973997 -0.4537604746027087 0  0.01051727619263377 -1.088858357362194 0  -0.2234942609176301 0.8619127912343982 0  -2.95903482691863 0.1219373374385197 0  -4.682467695920681 0.0804575682243254 0  5.535750224195656 -0.1525732643419722 0  -4.290083947414376 -0.0005258314026840717 0  1.136102562417988 0.7655312464039168 0  -2.816589394567214 0.9927597419785312 0  -2.645374456162409 -0.7645902451387543 0  4.18414576655837 1.624276131878667 0  0.7127337088822223 -0.9006358935856398 0  1.972418102153911 0.9727040774616764 0  -2.42199174813501 0.8591219219254587 0  -2.418604734200992 -0.8552987735117754 0  -5.573597213364169 -0.03612430678117123 0  2.024792870869397 0.05574071630590883 0  -1.578875191508968 0.861424470724936 0  -1.54706008231699 -0.8630049102346303 0  3.848662181064435 -1.569601980075533 0  -2.000000000003871 -0.9746445732264465 0  -1.99999999
[...]
<PointData  Scalars="f_24"> 
<DataArray  type="Float64"  Name="f_24"  format="ascii">7.6284566603877080e-01  7.6284566603877080e-01  0.0000000000000000e+00  0.0000000000000000e+00  2.3857655006427050e-01  5.9244057161383079e-01  7.1104059539827980e-01  6.6091571328123011e-01  6.0928520385745044e-01  5.5850259887669818e-01  5.0854711411963138e-01  4.6333968876848031e-01  4.3151174104829332e-01  4.5655178880961866e-01  5.2374799918973935e-01  5.7965917444515402e-01  5.9336105703082520e-01  5.7733186974793205e-01  5.4239697738783921e-01  4.9999270921395289e-01  4.5416576875783976e-01  4.0608329430259149e-01  3.5561251371530356e-01  3.0645179930376237e-01  2.5577124931910178e-01  2.0465515699117076e-01  1.5353857084814990e-01  1.0243677354211408e-01  5.1798704109916771e-02  0.0000000000000000e+00  0.0000000000000000e+00  0.0000000000000000e+00  0.0000000000000000e+00  0.0000000000000000e+00  0.0000000000000000e+00  0.0000000000000000e+00  5.1748848154996252e-02  1.0263967795890519e-01  1.5370778467057361e-01  2.0514580693950535e-01  2.5561709493800489e-01  3.0617680805233261e-01  3.5633386305840076e-01  4.0602641854606081e-01  4.5358592318365243e-01  4.9999699298722239e-01  5.4234465375682084e-01  5.7653696217244010e-01  5.9428018026563878e-01  5.7894722513062424e-01  5.2452484877763761e-01  4.5643248549913051e-01  4.3148746974469754e-01  4.6340854802160175e-01  5.0842784512375372e-01  5.5852235549918861e-01  6.0994662572125791e-01  6.6019561230560775e-01  7.1122349160037734e-01  7.6284566603877080e-01  7.6284566603877080e-01  7.6284566603877080e-01  7.6284566603877080e-01  7.6284566603877080e-01  7.6284566603877080e-01  7.6284566603877080e-01  2.3976389067909448e-01  2.4193998408842751e-01  2.6750122815345928e-01  3.2187371671394638e-01  3.9306984784940224e-01  4.7760485593066743e-01  5.5443064418447818e-01  6.0848459415251899e-01  6.2718671304052565e-01  6.2177506662503257e-01  6.0705665715912194e-01  5.9620902380587015e-01  5.9603497714640141e-01  6.0698665189591561e-01  6.2148542684485930e-01  6.2821502355944658e-01  6.0909867199852430e-01  5.5429991129755884e-01  4.7764874737796575e-01  3.9351123419394535e-01  3.2116380976736864e-01  2.6808404728217505e-01  2.4405125022000265e-01  2.3806966176311001e-01  5.2741136763062757e-01  5.9372221734094277e-01  5.2754885475240820e-01  5.6440486087632702e-01  3.5705072378004266e-01  4.9081513884423922e-01  1.8304772031317296e-01  5.7486053228503953e-01  4.7101079118283679e-01  5.6905960215373186e-01  4.8493672214976141e-01  6.5142510484661464e-01  4.7104314031016298e-01  5.6639180975115100e-01  4.4990533755287698e-01  5.7708284383035513e-01  4.3824433315646211e-01  2.5565789743624051e-01  1.2101545302107332e-01  2.8030525231644882e-01  5.8364704520985233e-01  4.4228388049433726e-01  4.9515238787379662e-01  4.9443092531376520e-01  4.4236935378911291e-01  6.7368841669497426e-01  3.9485900010246677e-01  1.0639071453181578e-01  5.4429335061177930e-01  6.7429406516720325e-01  4.2645921840737600e-01  4.0016393313598569e-01  5.8526021851750076e-01  5.8370749555134316e-01  5.9628300399736633e-01  4.3768197183283836e-01  3.6439758156432228e-01  9.1663620163257256e-02  1.9591273067943069e-01  5.3870280082380617e-01  5.3830474350192470e-01  5.3244556899201179e-01  5.2715462697251902e-01  5.2789190126376373e-01  2.7236241234476122e-01  4.1538587618619510e-01  5.4021131284506096e-01  4.4996238388452714e-01  5.3849860067976363e-01  4.5006680079825523e-01  4.1481866199569878e-01  1.9102375899249480e-01  5.7551128891706216e-01  5.7567120575542707e-01  5.5791254711238192e-01  3.2238829978550892e-01  4.0297704986498484e-01  4.9405746486778518e-01  6.9342907738642268e-01  5.7983438349592409e-01  6.0933645776145273e-01  3.7787618371377174e-01  5.8717945013835104e-01  1.9208847661693745e-01  7.0017179713264141e-02  5.8835344472585172e-01  5.5500063423107937e-01  4.5685173358384962e-01  4.8602252958765452e-01  4.0231438048078805e-01  4.8236850701726186e-01  5.7670391323245440e-01  6.4144508938198341e-01  3.6313453268607487e-01  6.1705527745914579e-01  3.2143600416919516e-01  5.8409718155905277e-01  5.7756441146491377e-01  4.2130361852279052e-01  5.8056040105292828e-01  7.0410281369973959e-01  4.1753524250163571e-01  5.0386867016915493e-01  5.0440136769983590e-01  4.1753927937796231e-01  5.7954616460985164e-01  3.9460270369540318e-01  5.5325151005239626e-01  4.8605374228480663e-01  7.0363766259124916e-01  6.4012946522541109e-02  2.6158500346642771e-01  4.7573917194851723e-01  5.8962794813192532e-01  5.1383405215793310e-01  3.1118450518514212e-01  1.3224544809210340e-01  6.2050106676990270e-02  2.4586542130020311e-01  3.2762755696890850e-01  5.7873161263817818e-01  5.7530369292549163e-02  4.6069253307108382e-01  5.0326953706361810e-01  4.2823885425189595e-01  2.3987393942056937e-01  4.6069221991173120e-01  5.3761354718708410e-01  4.6274501537317003e-01  4.6278783176937965e-01  5.4385785018078270e-01  1.4390628502069186e-01  5.0019842422895033e-01  5.6022408207321395e-01  6.3390105778242734e-01  3.1721360747044813e-01  5.0519341624597958e-01  7.0823476697115950e-01  6.4384266021238179e-01  1.3883032952638755e-01  3.6013067872826282e-01  5.8793753417883010e-01  4.4368855803460333e-01  3.7678424202985783e-01  1.2929431940457398e-01  5.7864024165556882e-01  3.8891582829880600e-01  4.7132424281524188e-01  5.9370167281787667e-01  5.0498443674824123e-01  5.5473417899307409e-01  3.2507283630567146e-01  5.6010390498450380e-01  2.2539645793252222e-01  5.9832589588536655e-01  3.3593377772853777e-01  5.9848036358166523e-01  3.2868361430421272e-01  5.4461754736993095e-01  5.7896994381245315e-01  5.6560929463107823e-01  5.2721709108658021e-01  5.5828752636209711e-01  5.0451318478157969e-01  7.1561490425582341e-01  6.0057445223506423e-01  5.4153723688545863e-01  5.3044000549095316e-01  3.8405285286598251e-01  5.6017751836053620e-01  7.1681120418081401e-01  5.6697455864016322e-01  6.5221971504048826e-01  1.7149782273753458e-01  6.3060307385242464e-01  4.6494940093760151e-01  4.3005910783652057e-01  5.4951736103840043e-01  5.6199164879517483e-01  5.7008143390687049e-01  3.0683838925421730e-01  6.2256821236907067e-01  4.7439424838305488e-02  5.7643171092002821e-01  4.7925588560364174e-01  4.2985664320349359e-01  3.5673423938191212e-01  1.8596718264839257e-01  5.1467738100099891e-01  4.0497104409633883e-01  3.7481951326066398e-01  3.7498427923386018e-01  7.1870443356852365e-01  3.9743350487894313e-01  5.7300099690769779e-01  5.7357262937666820e-01  2.1983444931215299e-01  4.6934484328857407e-01  4.6940342135630619e-01  4.5470316695840041e-01  2.3964163748703990e-01  5.6232375792851341e-01  5.1149439247564576e-01  4.0403245866408102e-02  4.2580771144546246e-02  3.2172118389999271e-01  5.4203852812051967e-01  5.6418497014384661e-01  3.5139375732057399e-01  1.6611065946604087e-01  1.7876163214912610e-01  4.2755052731112442e-01  5.4914573088499508e-01  4.2161827288738590e-01  3.1538545966012260e-01  4.5516496951189872e-01  4.3039443898417235e-01  2.1313779202797389e-01  2.7712801635191664e-01  1.0257382700218567e-01  5.6915656017187499e-01  5.6171535627087110e-01  5.8290513041312952e-01  5.3869491432174899e-01  3.3083950009674240e-01  4.6111351544383766e-01  5.3045465932894109e-01  5.1489497394891948e-01  7.2121175210726651e-01  2.8779249857804212e-01  5.8366087557282942e-01  6.4227987574527956e-01  4.9878080931123153e-01  5.7743182164010243e-01  6.0583024767945870e-01  2.9854859719541127e-01  5.8252601447117947e-01  4.7160652271374426e-01  4.5145532379388092e-01  4.9489738664943639e-01  4.9555938772686259e-01  4.5148494230107677e-01  4.5434905799713016e-01  4.9902656052188560e-01  2.8130535719619026e-01  5.7668238245567482e-01  4.0591914180982888e-02  6.7039823412543553e-01  3.6574167299842547e-01  5.3479512188918354e-01  5.2087811741778456e-01  4.6208081140155577e-01  1.4707213010171874e-01  4.4896829644694103e-01  5.0271322360741266e-01  6.7689046922485474e-01  6.1755375699020787e-01  6.8286886336141117e-01  4.3799336356936697e-01  3.9488726114525252e-01  5.4594793490206817e-01  2.3249255515123238e-01  5.7871575058544444e-01  4.5698080660287455e-01  5.8933633040986766e-01  5.7231601287822742e-01  5.9179944002229501e-01  4.3202202562741036e-02  9.6775728042450659e-02  5.9665552240605491e-01  5.7904232696158464e-01  9.9489934068312413e-02  2.9421189474982457e-01  6.7090886447420583e-01  3.4139102210569627e-01  5.0713142011160617e-01  4.8850473359472196e-01  5.5645004565834788e-01  7.3163855395445654e-01  5.7746287094005588e-01  5.8616845625789082e-01  8.4628002382891226e-02  1.4414922678732695e-01  2.9376853277111031e-01  5.7947261959495466e-01  5.3174161836769129e-01  5.0122651492872849e-01  7.2626488213537177e-01  2.2509280267017120e-01  1.7602421320372100e-01  5.3146832286987788e-01  4.3259605904253096e-01  6.6916980249589808e-01  3.4895185671846192e-02  5.8261376843873203e-01  3.4914893641092265e-01  3.5932996890036040e-01  5.7043232505968322e-01  4.6596723191223705e-01  3.7795222070934859e-01  4.8366172351728248e-01  5.6389877743767980e-01  7.3598285658260232e-01  5.8818519582966899e-01  4.8144236613103331e-01  5.2705755911792851e-01  5.7871752076185101e-01  4.1793035734283435e-01  2.2881805698520083e-01  5.6436825459864770e-01  2.9859168179837789e-02  7.3613389994071288e-01  6.8043120920195677e-01  4.2888023493127686e-01  4.8556458235012639e-01  5.0157681205123605e-01  6.3694459185391716e-01  5.5102163382348823e-01  4.5631652764864133e-01  5.3009760767027703e-01  6.1331639740579413e-01  2.0764687999572506e-01  3.6462589908799170e-01  9.3464354114220022e-02  6.0695240037408626e-01  4.8137646132581952e-01  5.7378686806558521e-01  5.7244225292234507e-01  6.4608561916324669e-01  2.8045138972119349e-01  4.2229187319170480e-01  4.2254304300886847e-01  5.4619045692351098e-01  5.4700809281423601e-01  4.5764352505884442e-01  4.1940627903778555e-01  </DataArray> 
</PointData> 
</Piece>
</UnstructuredGrid>
</VTKFile>