<?xml version="1.0"?>
<VTKFile type="UnstructuredGrid"  version="0.1"  >
<UnstructuredGrid>
<Piece  NumberOfPoints="406" NumberOfCells="722">
<Points>
<DataArray  type="Float64"  NumberOfComponents="3"  format="ascii">-6 -2 0  -6 2 0  6 2 0  6 -2 0  -2.8 0 0  -1.2 0 0  -5.500000000001853 -2 0  -5.000000000003705 -2 0  -4.500000000005556 -2 0  -4.000000000007409 -2 0  -3.50000000000926 -2 0  -3.000000000011112 -2 0  -2.500000000012963 -2 0  -2.000000000014814 -2 0  -1.500000000016665 -2 0  -1.000000000018516 -2 0  -0.5000000000203677 -2 0  -2.204547655537681e-11 -2 0  0.4999999999796305 -2 0  0.9999999999814779 -2 0  1.499999999983327 -2 0  1.999999999985175 -2 0  2.499999999987029 -2 0  2.999999999988882 -2 0  3.499999999990735 -2 0  3.999999999992589 -2 0  4.49999999999444 -2 0  4.999999999996293 -2 0  5.499999999998147 -2 0  6 -1.500000000001387 0  6 -1.000000000002774 0  6 -0.5000000000041616 0  6 -5.505595979116151e-12 0  6 0.4999999999958384 0  6 0.9999999999972258 0  6 1.499999999998613 0  5.500000000001853 2 0  5.000000000003705 2 0  4.500000000005556 2 0  4.000000000007409 2 0  3.50000000000926 2 0  3.000000000011112 2 0  2.500000000012963 2 0  2.000000000014814 2 0  1.500000000016665 2 0  1.000000000018516 2 0  0.5000000000203677 2 0  2.204547655537681e-11 2 0  -0.4999999999796305 2 0  -0.9999999999814779 2 0  -1.499999999983327 2 0  -1.999999999985175 2 0  -2.499999999987029 2 0  -2.999999999988882 2 0  -3.499999999990735 2 0  -3.999999999992589 2 0  -4.49999999999444 2 0  -4.999999999996293 2 0  -5.499999999998147 2 0  -6 1.500000000001387 0  -6 1.000000000002774 0  -6 0.5000000000041616 0  -6 5.505595979116151e-12 0  -6 -0.4999999999958384 0  -6 -0.9999999999972258 0  -6 -1.499999999998613 0  -2.776753453941174 -0.1914525314286965 0  -2.708364820523325 -0.3717785376335722 0  -2.598808598538216 -0.5304981265911284 0  -2.454451797386757 -0.65838709271366 0  -2.283683909636528 -0.748012994147384 0  -2.096429344207466 -0.7941670992780535 0  -1.903570655798842 -0.7941670992788195 0  -1.716316090368095 -0.7480129941491368 0  -1.545548202616307 -0.6583870927157747 0  -1.401191401463757 -0.530498126593356 0  -1.291635179477527 -0.371778537635196 0  -1.223246546059047 -0.1914525314295925 0  -1.223246546058803 0.1914525314286035 0  -1.291635179476594 0.3717785376334188 0  -1.401191401461634 0.5304981265909601 0  -1.545548202612898 0.6583870927134221 0  -1.716316090363093 0.7480129941472402 0  -1.903570655792394 0.7941670992780367 0  -2.096429344201276 0.7941670992788055 0  -2.283683909631911 0.7480129941491347 0  -2.454451797383697 0.6583870927157729 0  -2.598808598536385 0.530498126593196 0  -2.70836482052258 0.3717785376349917 0  -2.776753453940975 0.1914525314295042 0  0.4588466633941945 0.2704149791022056 0  -4.424312812173863 0.2760319703992994 0  -3.803977598762586 -0.6841584599595646 0  -0.1330968762779425 -0.6798763971615133 0  2.451109587541276 3.169800318630399e-13 0  -3.563610936250569 0.5929994091167295 0  4.204753319582647 0.2820669554523581 0  -0.4390897559348154 0.6178095532273566 0  -3.041446812595122 1.175550440315544 0  -0.9622132806516797 1.132103015222783 0  1.069493318942931 -0.773608156980569 0  -4.924330687080279 -0.7127064269610045 0  -3.024693497948964 -1.195179289656404 0  -0.9648749555625579 -1.256854520022574 0  -3.443624282349383 -0.2044158249759613 0  -0.5611500783757608 -0.1747080110423833 0  1.60270880116926 0.7487034276124258 0  3.488352576142236 -0.8228939860777884 0  4.816375011670135 -0.8163750116689444 0  3.243628045085357 0.8578172796997985 0  -4.228632884234073 1.228069101636678 0  -2.365220384435482 -1.356128547810356 0  -1.637465979486354 1.3571687267915 0  -1.642380978561139 -1.359365080147485 0  -2.362988915989869 1.356737096243695 0  -5.134120367293631 0.8356299802910161 0  2.077496878467794 -0.9514080034522553 0  4.960859291178299 0.9608592911785537 0  0.3293120056474302 1.148965409695154 0  -5.157560560414062 0.09447106214747865 0  -3.14779387667392 -0.6330563038825547 0  -3.148134455585257 0.4354299640428653 0  -0.8464439673630421 0.4159277415926296 0  -0.9918125625721008 -0.7191748422889824 0  -4.355349213295776 -1.234510499778242 0  1.582074659164868 -0.06850205959954866 0  2.400584045214166 1.204278622181321 0  5.102831660739063 0.03453404176596848 0  4.083259768981113 1.154272958349666 0  -3.992394834362243 -0.1621022234411988 0  0.4290302718942113 -1.225465289645401 0  -3.681487986394671 -1.310544246656267 0  -3.640289698916164 1.187023654838123 0  0.468851680921228 -0.447055967952278 0  3.315209904217932 0.05667935655546536 0  -2.541160649745046 -1.046980928586996 0  -1.45196684542695 1.044189935346116 0  -2.000844595891861 -1.207983108473125 0  -1.453092202970521 -1.061139264918894 0  -2.000050543938391 1.207806685704176 0  -2.548033154566413 1.04418993534851 0  4.13054585796652 -1.232871249381608 0  -0.3301617095463629 1.221692405319566 0  -0.2880491989587189 -1.359626628407983 0  -0.0758941643813178 0.132275811829787 0  2.826389221580753 -1.233168480096227 0  -2.922070412327736 0.7575752117792038 0  1.003070890178416 1.271347915034201 0  -5.319521816151902 -1.310543894393663 0  -1.070407062963812 0.7877698545098388 0  -4.562499863038985 -0.2302396981426722 0  -3.164226661545047 0.07179577787350272 0  -0.9091377812900333 0.132454654016971 0  4.116029045943655 -0.4851826871817362 0  5.316659189209927 -1.316659189208741 0  -0.9498828454673396 -0.4149758979014553 0  -4.037769805263969 0.6896174350675625 0  1.431664772855882 -1.327784137638992 0  -3.646693623568034 0.1600006358878044 0  -2.878371345483476 -0.7910345833001061 0  1.062603041385242 0.2894765870627741 0  -0.547955103783681 0.1635272504420374 0  -4.804809838419659 1.41016301576038 0  -3.042895319571192 -0.3694931303482478 0  -4.59252578392403 0.792267765362792 0  2.823271260730033 -0.5472430318427347 0  -4.28575390662405 -0.7521491832384866 0  -0.5524005545121191 -0.9037367558558163 0  1.815219025072439 1.388812135783969 0  -1.288398729718543 -0.8178399475601057 0  -5.424388493366639 1.35375165044146 0  -2.256991952837567 -1.049538527273222 0  -1.739586738723494 -1.052327527873255 0  -1.738827359988536 1.050180627239116 0  -2.257795730428802 1.049701225145305 0  -0.62222340523776 -0.5483611729237363 0  2.065188519029698 0.5424877383589943 0  0.1055865106318892 0.7347782870471022 0  1.013082573993895 -0.2061877611231605 0  -5.428323520618333 -0.4386412085227075 0  5.374041502384443 -0.5304401760993408 0  3.435185060219232 -1.377658617395091 0  -3.302377238490527 0.8841390072780534 0  -0.9902123298072768 -0.124175295282554 0  0.7186958547669859 0.8724503317343631 0  2.941237214953417 1.390391532351976 0  4.708037787864423 -1.340276032051348 0  5.395029680982659 1.395029680983341 0  3.591022587550188 1.348260650408605 0  2.759385971589342 0.4857447325740718 0  -0.6832705231418494 0.8879387563573758 0  5.437781298507145 0.5981501503262471 0  -2.698603003287285 1.617130043745112 0  -3.463358189947519 -1.013588318179017 0  1.710866040171871 -0.6978716337870808 0  3.642182982762737 0.4555704362064124 0  -2.699802128031161 -1.618310703146212 0  -1.3020054856637 1.619819977935582 0  -2.000000000004996 -1.566396763829867 0  -1.999999999994794 1.566396763830688 0  -1.247812462071684 -1.595232739507426 0  4.59429106759859 1.420052135572917 0  0.9448382581152466 -1.440259145469251 0  -0.116376100998861 -0.2606209011258676 0  -4.774521510507792 0.4245390872783272 0  -2.983910172370106 -0.1208000607277856 0  -3.353983741142061 1.576062863985777 0  -5.473352579109997 0.4917619255280954 0  -4.828650470275986 -1.493148538517745 0  4.639973657165532 -0.2833178611094909 0  -2.660279445404468 0.7699932347178977 0  -1.335045190775955 0.7744876666923373 0  -3.395669172689978 0.2584951122361346 0  2.279110606119369 -1.465899541383697 0  4.734317729212562 0.4520963557364723 0  -0.6334913028224612 1.584213953723378 0  2.121854101359879 -0.4289611127787379 0  -3.474459720833238 -0.4977581316675216 0  -1.066539898844178 0.3411379476537602 0  -3.361849707555382 -1.611428512420182 0  -4.099039818938317 0.3306400369415774 0  -2.935324777364672 0.354721898811665 0  -3.973578595052027 1.482940358734671 0  3.784450148635689 -0.0702780807301525 0  -1.191348122671212 -0.5614501189722798 0  -2.838672605956353 -0.5493179047027598 0  -1.184983441257359 0.5617520886612424 0  -2.811184099847449 0.5574240755049175 0  0.2702752249355158 -0.8003643570420809 0  -0.6945947797857237 -1.593893965175195 0  0.001175881878679056 1.504521009023778 0  0.6072931735145096 1.501814722697789 0  -3.991896293645949 -1.047264188412552 0  -3.734097395159253 -0.3261671578666079 0  -5.539652387691843 -0.8857154182585802 0  -4.395061924111849 1.563293728588296 0  0.2258327611651416 -0.08745142624872881 0  -3.774816634825771 0.8676973328379478 0  2.208484493569073 1.6256686312487 0  0.1309939514660535 -1.566169703482512 0  -5.551414360955331 0.9459842275970113 0  -4.04734138658365 -1.51163984963472 0  -4.947145019546805 -0.3299925153029702 0  4.320410447198621 0.6970857582435144 0  -4.707557346727139 -1.000565649857444 0  1.353711468973986 1.582551234446199 0  1.674156483558973 0.3266252271732694 0  -4.039105552973997 -0.4537604746027087 0  0.01051727619263377 -1.088858357362194 0  -0.2234942609176301 0.8619127912343982 0  -2.95903482691863 0.1219373374385197 0  -4.682467695920681 0.0804575682243254 0  5.535750224195656 -0.1525732643419722 0  -4.290083947414376 -0.0005258314026840717 0  1.136102562417988 0.7655312464039168 0  -2.816589394567214 0.9927597419785312 0  -2.645374456162409 -0.7645902451387543 0  4.18414576655837 1.624276131878667 0  0.7127337088822223 -0.9006358935856398 0  1.972418102153911 0.9727040774616764 0  -2.42199174813501 0.8591219219254587 0  -2.418604734200992 -0.8552987735117754 0  -5.573597213364169 -0.03612430678117123 0  2.024792870869397 0.05574071630590883 0  -1.578875191508968 0.861424470724936 0  -1.54706008231699 -0.8630049102346303 0  3.848662181064435 -1.569601980075533 0  -2.000000000003871 -0.9746445732264465 0  -1.99999999
[...]
<PointData  Scalars="f_24"> 
<DataArray  type="Float64"  Name="f_24"  format="ascii">-9.8160016403630745e-01  -9.8160016403630745e-01  0.0000000000000000e+00  0.0000000000000000e+00  -1.1357833654764840e+00  -2.7199269130709391e-01  -9.6646149051175878e-01  -9.5119776744395579e-01  -9.3394354080717246e-01  -9.1467982055199926e-01  -8.9101551341719132e-01  -8.5146035449759472e-01  -7.8805914906626795e-01  -6.6308368945666574e-01  -5.0164070620675127e-01  -3.6148799141318194e-01  -2.7151976076441664e-01  -2.1788037431758775e-01  -1.8363378458150065e-01  -1.5894780948639770e-01  -1.3864326300011709e-01  -1.2140727519338221e-01  -1.0416270610651232e-01  -8.9200328712666421e-02  -7.3727563903809509e-02  -5.8608841732617274e-02  -4.3684231393045607e-02  -2.8892191272746427e-02  -1.4835441924020894e-02  0.0000000000000000e+00  0.0000000000000000e+00  0.0000000000000000e+00  0.0000000000000000e+00  0.0000000000000000e+00  0.0000000000000000e+00  0.0000000000000000e+00  -1.4793903973581617e-02  -2.9093012341973798e-02  -4.3648426956086721e-02  -5.8951568488028835e-02  -7.3625822202643285e-02  -8.8919056807231209e-02  -1.0463084036883522e-01  -1.2119579726505852e-01  -1.3865796319643814e-01  -1.5881815383598225e-01  -1.8357477044325235e-01  -2.1819038280731129e-01  -2.7057189154379574e-01  -3.6260674158401013e-01  -5.0058203434905424e-01  -6.6322497131769942e-01  -7.8811730087554299e-01  -8.5120802021356134e-01  -8.9114793328904418e-01  -9.1461551465095026e-01  -9.3461575152732779e-01  -9.5081885840158864e-01  -9.6655967074823679e-01  -9.8160016403630745e-01  -9.8160016403630745e-01  -9.8160016403630745e-01  -9.8160016403630745e-01  -9.8160016403630745e-01  -9.8160016403630745e-01  -9.8160016403630745e-01  -1.1290451092104707e+00  -1.1087297503926432e+00  -1.0509674278622103e+00  -9.5056529172720416e-01  -8.2261677480668505e-01  -6.7472140445936868e-01  -5.3380583859943842e-01  -4.1816891605692003e-01  -3.4470564562490280e-01  -3.0405778361786590e-01  -2.8509927202953439e-01  -2.7513149627303124e-01  -2.7512700865937906e-01  -2.8503268074666083e-01  -3.0499628389408495e-01  -3.4411689582909449e-01  -4.1772945740682205e-01  -5.3400006119929988e-01  -6.7471815136069624e-01  -8.2216175534850389e-01  -9.5117298571956288e-01  -1.0502411970665930e+00  -1.1065467684845745e+00  -1.1305657978725658e+00  -1.9704038784788555e-01  -9.4614416361326226e-01  -9.3109015311809118e-01  -2.3528671031206477e-01  -1.0982089267081266e-01  -9.3949947659856448e-01  -5.3378372401156865e-02  -2.5739558329158552e-01  -8.6745122354253834e-01  -3.4514754304020623e-01  -1.6276311074209607e-01  -9.5191114381166297e-01  -8.6383870581332789e-01  -3.5367755113972071e-01  -9.7308825125940779e-01  -2.5809461017962504e-01  -1.3985401832857880e-01  -7.5033750612974529e-02  -3.4860365686804951e-02  -8.2616866329387542e-02  -9.2526774088291641e-01  -7.5818513331417703e-01  -5.4477748612945143e-01  -5.4642779545133124e-01  -7.5761400700174741e-01  -9.5694392413697837e-01  -1.2131935506869371e-01  -3.0548449741772409e-02  -2.0204031907822931e-01  -9.6015242239929288e-01  -9.5147257898668791e-01  -9.8634473368684672e-01  -2.7994382195766110e-01  -3.1148768635426494e-01  -9.2959215450415289e-01  -1.4271153229870642e-01  -1.0944035660086318e-01  -2.6503701585675991e-02  -5.6634522942815166e-02  -9.4768018598904069e-01  -1.9522550847423603e-01  -8.9984314383403219e-01  -9.0119919853900221e-01  -1.9609466869191267e-01  -8.1063263688793366e-02  -8.3409675622295321e-01  -4.4864769342564725e-01  -6.6645447041188854e-01  -4.5135731576583277e-01  -6.6620152204340655e-01  -8.3652429535937411e-01  -5.5132842278975427e-02  -2.5832431706663855e-01  -2.5437888803542014e-01  -2.2919085351478835e-01  -9.5391260394497690e-02  -9.3737840440521158e-01  -1.6346833061031368e-01  -9.6098195542278175e-01  -3.2984283320701180e-01  -9.4821657973892837e-01  -1.0191358737050975e+00  -2.7213054169999767e-01  -5.5996159869846317e-02  -2.0028001346240602e-02  -2.8483880592593208e-01  -9.3353690148484914e-01  -1.4437898447398401e-01  -9.5975142312782957e-01  -9.2917740855751207e-01  -1.6538333023811430e-01  -2.5740035090808827e-01  -9.4431539208523962e-01  -1.0155559873520266e+00  -9.4272720654948883e-01  -9.6666076467705253e-02  -9.3585873243318307e-01  -2.7567719911522220e-01  -1.2949227311327527e-01  -3.6218637659450453e-01  -9.6415320769209156e-01  -7.6500825081055557e-01  -5.4667562854008545e-01  -5.4592181498062453e-01  -7.6521717956502100e-01  -2.6933735584094970e-01  -1.2291868956712618e-01  -2.1829196867825126e-01  -1.6798328654598091e-01  -9.6595149796080304e-01  -1.8437343232642879e-02  -7.6129274622443649e-02  -9.1309483433923555e-01  -2.7368713647274368e-01  -1.7992166591747738e-01  -9.1553826419426623e-02  -3.7885750844221758e-02  -1.7676015096685017e-02  -7.1445760933338209e-02  -9.8858416974851690e-02  -2.8926167614439352e-01  -1.6518542058136982e-02  -8.0305054734555636e-01  -9.0382117646013260e-01  -1.3572877807534048e-01  -7.0587184504341080e-02  -8.0322226111269479e-01  -4.4865933777754718e-01  -6.5745228709125625e-01  -6.5745233828397509e-01  -4.3204317216061555e-01  -4.1202389737265810e-02  -1.6546143646463851e-01  -2.3196909115926459e-01  -9.5059923120470613e-01  -1.0651549217371399e+00  -8.7334958375368354e-01  -9.6722809795478393e-01  -9.4473792066912354e-01  -4.0277186328050024e-02  -9.3625672302006757e-01  -3.5900707012539101e-01  -9.7321455804911983e-01  -1.1300313237670995e-01  -3.7410763884264522e-02  -3.0246275249579480e-01  -1.2113211881359937e-01  -9.5020863745219186e-01  -2.8305012824256565e-01  -8.7435378449677614e-01  -9.4413887547472886e-01  -1.0441287018006911e+00  -9.1151039815811208e-01  -6.6319269713205564e-02  -3.0738123173361570e-01  -1.0090830545118539e+00  -3.0677677478585536e-01  -1.0123008949200760e+00  -2.0701329885963771e-01  -3.1116351467899134e-01  -2.2685220209182133e-01  -1.8340696278404406e-01  -9.2036191445197912e-01  -9.5007152156818697e-01  -9.6826852280812659e-01  -9.2921334214593232e-01  -2.1079976854764590e-01  -9.2188141369845378e-01  -1.1511699615427591e-01  -2.1508229741055518e-01  -9.6858126489037100e-01  -9.1476562428009067e-01  -9.5474956509361697e-01  -4.9725910226991132e-02  -9.4337560458366965e-01  -1.4682689653803938e-01  -1.3843764138241718e-01  -9.4110496230082652e-01  -2.2582119012043503e-01  -2.4331748196217112e-01  -1.0739088828169252e+00  -9.5047230839421826e-01  -1.3700010307212660e-02  -9.4689591757117997e-01  -1.5974061488818900e-01  -8.7811909775478458e-01  -9.3724169716310435e-01  -5.3408500747901995e-02  -1.8015649069332548e-01  -1.2495049010193987e-01  -8.6297503738423409e-01  -8.6230993925287458e-01  -9.6999764030512714e-01  -1.2523910556326301e-01  -4.2968003184589015e-01  -4.2199932669179696e-01  -6.3516294361995601e-02  -6.4774311095810599e-01  -6.4774164754939034e-01  -8.2741061747858247e-01  -6.9987641180889001e-02  -3.8242577466237704e-01  -1.8520004410592267e-01  -1.1487396108156684e-02  -1.2200479083277354e-02  -9.5728184715756642e-02  -4.2673759878946727e-01  -3.7202414277613305e-01  -1.0588246498730380e-01  -4.8084928246961353e-02  -5.1436084818386470e-02  -1.3094722089577604e-01  -2.1626206276228843e-01  -9.7991161447673314e-01  -9.5242139175029411e-02  -8.2693635465927229e-01  -9.4477164217851861e-01  -6.2051914722756035e-02  -8.2324827633331252e-02  -2.9283847745390428e-02  -2.4497090358118367e-01  -2.3290640133549814e-01  -2.6654115851930127e-01  -4.3519789078407234e-01  -9.7482077592870142e-02  -9.0083921060484295e-01  -1.8294631402402525e-01  -9.4422881512066104e-01  -9.6939068706163101e-01  -8.5792367968726607e-02  -2.7091521604710428e-01  -9.4666693607365304e-01  -8.8644721430823448e-01  -2.9167423953695687e-01  -9.3137250136949112e-01  -8.8439763879978636e-02  -2.8694412688684490e-01  -1.4937962445972480e-01  -7.3322644100344070e-01  -5.6419127165153815e-01  -5.6205229948499158e-01  -7.3314899370701936e-01  -1.4450003446236329e-01  -8.7940197059565550e-01  -8.1859455947744866e-02  -3.0398482293733803e-01  -1.1544361202491991e-02  -9.5504944223292088e-01  -1.0214777538178632e+00  -8.9843810277045577e-01  -1.8172084877579842e-01  -1.5304862738147010e-01  -4.2350323086410575e-02  -9.5458482391474464e-01  -1.7664622051249010e-01  -9.5561547132674718e-01  -9.4599737751040014e-01  -9.5748372141890847e-01  -9.8212621168862757e-01  -1.0062471252823491e+00  -2.1458454496441182e-01  -6.8290617698095885e-02  -2.6556342857356974e-01  -1.4713756406589309e-01  -9.4114060815015632e-01  -2.5136160734025237e-01  -2.7356853343496862e-01  -1.2466266189798687e-02  -2.7627931999641354e-02  -2.8255736150806832e-01  -2.5636399518532671e-01  -2.8766133800100444e-02  -8.5955375433633602e-02  -9.5434581113193329e-01  -1.0078477239196654e-01  -1.8003870981366080e-01  -9.5978507940302249e-01  -9.1904114992656938e-01  -9.7256973122212254e-01  -3.0969615387923027e-01  -9.3274258901075446e-01  -2.4275593143675563e-02  -4.1872315075786690e-02  -1.0717148544094650e+00  -2.4902723116210690e-01  -1.9737917716385184e-01  -1.6459978818151097e-01  -9.7093612437656385e-01  -6.4933933321321413e-02  -5.1360831904699034e-02  -8.9554504660321588e-01  -8.6637146517770025e-01  -9.5749774193171822e-01  -9.8085155073690273e-03  -2.6795984118229588e-01  -1.0654458325791800e-01  -1.0909060997252376e-01  -2.4753198643907490e-01  -1.5692632480210983e-01  -9.8560396392532623e-01  -1.5949968248179489e-01  -2.2845774025348256e-01  -9.7382768987540336e-01  -2.9647307444122095e-01  -8.4685358121539489e-01  -9.5016664474656154e-01  -9.4438546385527677e-01  -1.2877313245756092e-01  -6.6484122454344513e-02  -3.6371406534632794e-01  -8.5048685161614145e-03  -9.7433864163776285e-01  -9.5935935693322982e-01  -1.3087738713141078e-01  -9.2506016576339134e-01  -9.2004780450064572e-01  -9.4269175178139364e-01  -2.0087349199305460e-01  -8.9756473032393180e-01  -9.1673646369714323e-01  -9.3615939200020903e-01  -6.0535975112695505e-02  -1.1212559147398274e-01  -2.6974060855779931e-02  -3.3976001695954294e-01  -8.4649053172203659e-01  -2.5690338266502999e-01  -2.4865107004928130e-01  -9.5064262914984576e-01  -8.2195978227035504e-02  -7.5932203798089870e-01  -7.5890845113287908e-01  -5.1047171879413988e-01  -5.0830337719400542e-01  -1.5101631386426953e-01  -1.3378811736840859e-01  </DataArray> 
</PointData> 
</Piece>
</UnstructuredGrid>
</VTKFile>