<?xml version="1.0"?>
<VTKFile type="UnstructuredGrid"  version="0.1"  >
<UnstructuredGrid>
<Piece  NumberOfPoints="406" NumberOfCells="722">
<Points>
<DataArray  type="Float64"  NumberOfComponents="3"  format="ascii">-6 -2 0  -6 2 0  6 2 0  6 -2 0  -2.8 0 0  -1.2 0 0  -5.500000000001853 -2 0  -5.000000000003705 -2 0  -4.500000000005556 -2 0  -4.000000000007409 -2 0  -3.50000000000926 -2 0  -3.000000000011112 -2 0  -2.500000000012963 -2 0  -2.000000000014814 -2 0  -1.500000000016665 -2 0  -1.000000000018516 -2 0  -0.5000000000203677 -2 0  -2.204547655537681e-11 -2 0  0.4999999999796305 -2 0  0.9999999999814779 -2 0  1.499999999983327 -2 0  1.999999999985175 -2 0  2.499999999987029 -2 0  2.999999999988882 -2 0  3.499999999990735 -2 0  3.999999999992589 -2 0  4.49999999999444 -2 0  4.999999999996293 -2 0  5.499999999998147 -2 0  6 -1.500000000001387 0  6 -1.000000000002774 0  6 -0.5000000000041616 0  6 -5.505595979116151e-12 0  6 0.4999999999958384 0  6 0.9999999999972258 0  6 1.499999999998613 0  5.500000000001853 2 0  5.000000000003705 2 0  4.500000000005556 2 0  4.000000000007409 2 0  3.50000000000926 2 0  3.000000000011112 2 0  2.500000000012963 2 0  2.000000000014814 2 0  1.500000000016665 2 0  1.000000000018516 2 0  0.5000000000203677 2 0  2.204547655537681e-11 2 0  -0.4999999999796305 2 0  -0.9999999999814779 2 0  -1.499999999983327 2 0  -1.999999999985175 2 0  -2.499999999987029 2 0  -2.999999999988882 2 0  -3.499999999990735 2 0  -3.999999999992589 2 0  -4.49999999999444 2 0  -4.999999999996293 2 0  -5.499999999998147 2 0  -6 1.500000000001387 0  -6 1.000000000002774 0  -6 0.5000000000041616 0  -6 5.505595979116151e-12 0  -6 -0.4999999999958384 0  -6 -0.9999999999972258 0  -6 -1.499999999998613 0  -2.776753453941174 -0.1914525314286965 0  -2.708364820523325 -0.3717785376335722 0  -2.598808598538216 -0.5304981265911284 0  -2.454451797386757 -0.65838709271366 0  -2.283683909636528 -0.748012994147384 0  -2.096429344207466 -0.7941670992780535 0  -1.903570655798842 -0.7941670992788195 0  -1.716316090368095 -0.7480129941491368 0  -1.545548202616307 -0.6583870927157747 0  -1.401191401463757 -0.530498126593356 0  -1.291635179477527 -0.371778537635196 0  -1.223246546059047 -0.1914525314295925 0  -1.223246546058803 0.1914525314286035 0  -1.291635179476594 0.3717785376334188 0  -1.401191401461634 0.5304981265909601 0  -1.545548202612898 0.6583870927134221 0  -1.716316090363093 0.7480129941472402 0  -1.903570655792394 0.7941670992780367 0  -2.096429344201276 0.7941670992788055 0  -2.283683909631911 0.7480129941491347 0  -2.454451797383697 0.6583870927157729 0  -2.598808598536385 0.530498126593196 0  -2.70836482052258 0.3717785376349917 0  -2.776753453940975 0.1914525314295042 0  0.4588466633941945 0.2704149791022056 0  -4.424312812173863 0.2760319703992994 0  -3.803977598762586 -0.6841584599595646 0  -0.1330968762779425 -0.6798763971615133 0  2.451109587541276 3.169800318630399e-13 0  -3.563610936250569 0.5929994091167295 0  4.204753319582647 0.2820669554523581 0  -0.4390897559348154 0.6178095532273566 0  -3.041446812595122 1.175550440315544 0  -0.9622132806516797 1.132103015222783 0  1.069493318942931 -0.773608156980569 0  -4.924330687080279 -0.7127064269610045 0  -3.024693497948964 -1.195179289656404 0  -0.9648749555625579 -1.256854520022574 0  -3.443624282349383 -0.2044158249759613 0  -0.5611500783757608 -0.1747080110423833 0  1.60270880116926 0.7487034276124258 0  3.488352576142236 -0.8228939860777884 0  4.816375011670135 -0.8163750116689444 0  3.243628045085357 0.8578172796997985 0  -4.228632884234073 1.228069101636678 0  -2.365220384435482 -1.356128547810356 0  -1.637465979486354 1.3571687267915 0  -1.642380978561139 -1.359365080147485 0  -2.362988915989869 1.356737096243695 0  -5.134120367293631 0.8356299802910161 0  2.077496878467794 -0.9514080034522553 0  4.960859291178299 0.9608592911785537 0  0.3293120056474302 1.148965409695154 0  -5.157560560414062 0.09447106214747865 0  -3.14779387667392 -0.6330563038825547 0  -3.148134455585257 0.4354299640428653 0  -0.8464439673630421 0.4159277415926296 0  -0.9918125625721008 -0.7191748422889824 0  -4.355349213295776 -1.234510499778242 0  1.582074659164868 -0.06850205959954866 0  2.400584045214166 1.204278622181321 0  5.102831660739063 0.03453404176596848 0  4.083259768981113 1.154272958349666 0  -3.992394834362243 -0.1621022234411988 0  0.4290302718942113 -1.225465289645401 0  -3.681487986394671 -1.310544246656267 0  -3.640289698916164 1.187023654838123 0  0.468851680921228 -0.447055967952278 0  3.315209904217932 0.05667935655546536 0  -2.541160649745046 -1.046980928586996 0  -1.45196684542695 1.044189935346116 0  -2.000844595891861 -1.207983108473125 0  -1.453092202970521 -1.061139264918894 0  -2.000050543938391 1.207806685704176 0  -2.548033154566413 1.04418993534851 0  4.13054585796652 -1.232871249381608 0  -0.3301617095463629 1.221692405319566 0  -0.2880491989587189 -1.359626628407983 0  -0.0758941643813178 0.132275811829787 0  2.826389221580753 -1.233168480096227 0  -2.922070412327736 0.7575752117792038 0  1.003070890178416 1.271347915034201 0  -5.319521816151902 -1.310543894393663 0  -1.070407062963812 0.7877698545098388 0  -4.562499863038985 -0.2302396981426722 0  -3.164226661545047 0.07179577787350272 0  -0.9091377812900333 0.132454654016971 0  4.116029045943655 -0.4851826871817362 0  5.316659189209927 -1.316659189208741 0  -0.9498828454673396 -0.4149758979014553 0  -4.037769805263969 0.6896174350675625 0  1.431664772855882 -1.327784137638992 0  -3.646693623568034 0.1600006358878044 0  -2.878371345483476 -0.7910345833001061 0  1.062603041385242 0.2894765870627741 0  -0.547955103783681 0.1635272504420374 0  -4.804809838419659 1.41016301576038 0  -3.042895319571192 -0.3694931303482478 0  -4.59252578392403 0.792267765362792 0  2.823271260730033 -0.5472430318427347 0  -4.28575390662405 -0.7521491832384866 0  -0.5524005545121191 -0.9037367558558163 0  1.815219025072439 1.388812135783969 0  -1.288398729718543 -0.8178399475601057 0  -5.424388493366639 1.35375165044146 0  -2.256991952837567 -1.049538527273222 0  -1.739586738723494 -1.052327527873255 0  -1.738827359988536 1.050180627239116 0  -2.257795730428802 1.049701225145305 0  -0.62222340523776 -0.5483611729237363 0  2.065188519029698 0.5424877383589943 0  0.1055865106318892 0.7347782870471022 0  1.013082573993895 -0.2061877611231605 0  -5.428323520618333 -0.4386412085227075 0  5.374041502384443 -0.5304401760993408 0  3.435185060219232 -1.377658617395091 0  -3.302377238490527 0.8841390072780534 0  -0.9902123298072768 -0.124175295282554 0  0.7186958547669859 0.8724503317343631 0  2.941237214953417 1.390391532351976 0  4.708037787864423 -1.340276032051348 0  5.395029680982659 1.395029680983341 0  3.591022587550188 1.348260650408605 0  2.759385971589342 0.4857447325740718 0  -0.6832705231418494 0.8879387563573758 0  5.437781298507145 0.5981501503262471 0  -2.698603003287285 1.617130043745112 0  -3.463358189947519 -1.013588318179017 0  1.710866040171871 -0.6978716337870808 0  3.642182982762737 0.4555704362064124 0  -2.699802128031161 -1.618310703146212 0  -1.3020054856637 1.619819977935582 0  -2.000000000004996 -1.566396763829867 0  -1.999999999994794 1.566396763830688 0  -1.247812462071684 -1.595232739507426 0  4.59429106759859 1.420052135572917 0  0.9448382581152466 -1.440259145469251 0  -0.116376100998861 -0.2606209011258676 0  -4.774521510507792 0.4245390872783272 0  -2.983910172370106 -0.1208000607277856 0  -3.353983741142061 1.576062863985777 0  -5.473352579109997 0.4917619255280954 0  -4.828650470275986 -1.493148538517745 0  4.639973657165532 -0.2833178611094909 0  -2.660279445404468 0.7699932347178977 0  -1.335045190775955 0.7744876666923373 0  -3.395669172689978 0.2584951122361346 0  2.279110606119369 -1.465899541383697 0  4.734317729212562 0.4520963557364723 0  -0.6334913028224612 1.584213953723378 0  2.121854101359879 -0.4289611127787379 0  -3.474459720833238 -0.4977581316675216 0  -1.066539898844178 0.3411379476537602 0  -3.361849707555382 -1.611428512420182 0  -4.099039818938317 0.3306400369415774 0  -2.935324777364672 0.354721898811665 0  -3.973578595052027 1.482940358734671 0  3.784450148635689 -0.0702780807301525 0  -1.191348122671212 -0.5614501189722798 0  -2.838672605956353 -0.5493179047027598 0  -1.184983441257359 0.5617520886612424 0  -2.811184099847449 0.5574240755049175 0  0.2702752249355158 -0.8003643570420809 0  -0.6945947797857237 -1.593893965175195 0  0.001175881878679056 1.504521009023778 0  0.6072931735145096 1.501814722697789 0  -3.991896293645949 -1.047264188412552 0  -3.734097395159253 -0.3261671578666079 0  -5.539652387691843 -0.8857154182585802 0  -4.395061924111849 1.563293728588296 0  0.2258327611651416 -0.08745142624872881 0  -3.774816634825771 0.8676973328379478 0  2.208484493569073 1.6256686312487 0  0.1309939514660535 -1.566169703482512 0  -5.551414360955331 0.9459842275970113 0  -4.04734138658365 -1.51163984963472 0  -4.947145019546805 -0.3299925153029702 0  4.320410447198621 0.6970857582435144 0  -4.707557346727139 -1.000565649857444 0  1.353711468973986 1.582551234446199 0  1.674156483558973 0.3266252271732694 0  -4.039105552973997 -0.4537604746027087 0  0.01051727619263377 -1.088858357362194 0  -0.2234942609176301 0.8619127912343982 0  -2.95903482691863 0.1219373374385197 0  -4.682467695920681 0.0804575682243254 0  5.535750224195656 -0.1525732643419722 0  -4.290083947414376 -0.0005258314026840717 0  1.136102562417988 0.7655312464039168 0  -2.816589394567214 0.9927597419785312 0  -2.645374456162409 -0.7645902451387543 0  4.18414576655837 1.624276131878667 0  0.7127337088822223 -0.9006358935856398 0  1.972418102153911 0.9727040774616764 0  -2.42199174813501 0.8591219219254587 0  -2.418604734200992 -0.8552987735117754 0  -5.573597213364169 -0.03612430678117123 0  2.024792870869397 0.05574071630590883 0  -1.578875191508968 0.861424470724936 0  -1.54706008231699 -0.8630049102346303 0  3.848662181064435 -1.569601980075533 0  -2.000000000003871 -0.9746445732264465 0  -1.99999999
[...]
<PointData  Scalars="f_24"> 
<DataArray  type="Float64"  Name="f_24"  format="ascii">5.0904379658779941e-01  5.0904379658779941e-01  0.0000000000000000e+00  0.0000000000000000e+00  -2.8176019650556220e-02  4.9204711849495891e-01  4.6354561252031656e-01  4.1977532395891498e-01  3.7480158906176797e-01  3.3089053648049704e-01  2.8838991049119139e-01  2.5266422233478308e-01  2.3362820993109995e-01  2.8156516042229401e-01  3.7758052184899882e-01  4.6033125988649737e-01  4.9347868685641050e-01  4.9134913385505369e-01  4.6708769378375103e-01  4.3353152146782081e-01  3.9566326278896863e-01  3.5480924112321743e-01  3.1143613265223119e-01  2.6886309117140045e-01  2.2477160094276696e-01  1.8002456237244643e-01  1.3514422647313099e-01  9.0231963249132158e-02  4.5557093342190255e-02  0.0000000000000000e+00  0.0000000000000000e+00  0.0000000000000000e+00  0.0000000000000000e+00  0.0000000000000000e+00  0.0000000000000000e+00  0.0000000000000000e+00  4.5518411025292659e-02  9.0399497478581947e-02  1.3534992903532822e-01  1.8046239179460799e-01  2.2462283865246832e-01  2.6864811352913837e-01  3.1208885390075053e-01  3.5478828940738688e-01  3.9503283829664065e-01  4.3356075338854416e-01  4.6703563389439812e-01  4.9049303390642435e-01  4.9455322542628438e-01  4.5944503064886799e-01  3.7851827995673198e-01  2.8140910902983696e-01  2.3360577205171720e-01  2.5277702243304956e-01  2.8826430529306313e-01  3.3094970442918764e-01  3.7536329154688164e-01  4.1910091816596179e-01  4.6370524558362386e-01  5.0904379658779941e-01  5.0904379658779941e-01  5.0904379658779941e-01  5.0904379658779941e-01  5.0904379658779941e-01  5.0904379658779941e-01  5.0904379658779941e-01  -2.1646685159680636e-02  -6.8622785548716680e-03  3.4359227020908427e-02  1.0419083950923172e-01  1.8883294046944232e-01  2.8887808836874079e-01  3.8449245323871717e-01  4.5936583437039902e-01  4.9652562725992377e-01  5.0551856752582780e-01  4.9990681303494633e-01  4.9423112444931300e-01  4.9406291973214844e-01  4.9989145836597954e-01  5.0494186384730200e-01  4.9759483020233619e-01  4.5998152800328412e-01  3.8435256108335536e-01  2.8892957204255915e-01  1.8935362724250079e-01  1.0327861656971039e-01  3.5188271279007977e-02  -4.4222903708366363e-03  -2.3389518557514775e-02  4.5051631877072124e-01  3.5835641319780520e-01  2.9969910881010053e-01  4.7577846849984023e-01  3.1113474324964346e-01  2.6379703352081729e-01  1.6060477376792448e-01  4.7999392806183322e-01  2.5855000931576289e-01  4.5236730215681303e-01  4.1845155757465208e-01  4.1091235169369011e-01  2.5917403795575955e-01  4.4850318966059088e-01  2.1847806415095614e-01  4.8186600361742526e-01  3.8015398502187303e-01  2.2401825490315191e-01  1.0639456992520091e-01  2.4543678239980563e-01  3.5286940290549096e-01  2.4801915962512527e-01  3.3802033226554168e-01  3.3701521331230105e-01  2.4819471895142303e-01  4.3066939152965505e-01  3.4386224718288244e-01  9.3595761553016757e-02  4.6438389406572428e-01  4.3067241232462122e-01  2.0082400264553912e-01  1.6860241639590876e-01  4.8298850400943949e-01  4.7260880002604772e-01  3.6377535190022209e-01  3.7912360353812924e-01  3.1816684301399012e-01  8.0548010281814242e-02  1.7210809053429907e-01  3.0684287618301315e-01  4.6040429096285884e-01  3.1007795674340383e-01  3.0503376664216209e-01  4.5107954939556305e-01  2.3826556673117602e-01  2.0787093969678042e-01  3.9712186774796904e-01  2.6790413594356383e-01  3.9515641250674988e-01  2.6805662324125734e-01  2.0705209126834462e-01  1.6784699546857976e-01  4.8019729382979870e-01  4.8124935722388246e-01  4.7149340535929618e-01  2.8206461773109415e-01  1.8084394129359241e-01  4.2664824998102374e-01  4.4825823145320232e-01  4.6407648687613973e-01  3.7248849641331072e-01  1.3969066436249325e-01  4.8704148415267362e-01  1.6853379379741212e-01  6.1616228087058439e-02  4.8423876368948426e-01  3.2475021274965915e-01  3.9648829427644983e-01  2.5519660528857069e-01  1.8157384402521179e-01  4.1568861189755058e-01  4.8171304820418986e-01  4.0298826897061479e-01  1.2685686626934145e-01  3.8067418868213648e-01  2.8075947731483658e-01  3.5133189220240929e-01  4.7779243737955263e-01  3.6678701895054738e-01  4.5450292310455770e-01  4.5759616922883589e-01  2.1844883255744751e-01  3.3950770586059748e-01  3.4014922159408445e-01  2.1842758107245691e-01  4.8105016014990787e-01  3.4326517183489907e-01  4.6931694237826782e-01  4.1856431737605188e-01  4.5688106896820552e-01  5.6294154543089572e-02  2.2946816210891996e-01  2.5484278640650943e-01  4.8877418748203683e-01  4.4134200205493973e-01  2.7249239346960352e-01  1.1635456785073517e-01  5.4639184839195463e-02  2.1575454234426122e-01  2.8605616965390696e-01  4.7533298444287791e-01  5.0613904302139308e-02  2.5972155622652920e-01  2.8235059015645753e-01  3.7175471628731083e-01  2.1015682304106789e-01  2.5967814538731032e-01  4.0154475371147996e-01  2.8723698899041400e-01  2.8728295076289539e-01  4.1091961740466626e-01  1.2662402545349152e-01  4.3193993158748056e-01  4.7295430875848649e-01  3.9487640126158136e-01  6.9644096104789360e-02  2.8923959703080881e-01  4.6092253285688678e-01  4.0511609273615634e-01  1.2191689775366456e-01  1.3918377918878966e-01  4.6118000661636094e-01  2.1263851906421674e-01  3.2902593455212709e-01  1.1359740140819723e-01  4.7279908412423538e-01  3.3837432709984394e-01  2.4337331951551514e-01  4.8935139358738611e-01  2.8876232149017622e-01  3.2245608499974432e-01  8.4011559898323651e-02  3.3343738764201808e-01  1.9749454631526128e-01  4.8559328145388519e-01  1.0318836381619473e-01  4.8588700226004572e-01  9.5867442070216163e-02  4.6383127898572363e-01  4.7110252192012236e-01  4.7833469913234117e-01  4.5284557527651981e-01  3.3029088528936695e-01  2.7446633314635260e-01  4.6757912543584412e-01  3.6774485718907274e-01  4.6059526216235830e-01  3.0417999867696566e-01  3.3540385969196751e-01  4.7604060995398961e-01  4.6863141279257842e-01  3.3917811617118437e-01  4.1113898218017947e-01  1.5060388131716901e-01  3.9312544771528457e-01  4.0353057818303917e-01  3.7292165474087102e-01  3.1818349880139185e-01  4.7536034192220378e-01  4.7897020911948285e-01  5.7277588198283172e-02  3.8437632994476062e-01  4.1712327680660917e-02  3.4213572581713164e-01  4.1382887617862718e-01  2.1660409837987835e-01  1.3577118246580938e-01  1.6354397498717618e-01  4.4205442453239696e-01  3.5248541597345717e-01  1.6340513407798996e-01  1.6365868874366032e-01  4.7015111632357870e-01  3.4543487959044705e-01  4.2767644407534661e-01  4.3038986207687202e-01  1.9310834330852658e-01  2.8542817404922677e-01  2.8549852395074654e-01  2.4943209161805843e-01  2.1015218307650718e-01  4.3484348074248141e-01  4.3844095238560249e-01  3.5588511840392509e-02  3.7479902794427006e-02  2.8129988692522950e-01  4.0813619448836930e-01  4.3976397838768805e-01  3.0673150213632583e-01  1.4592438201483837e-01  1.5717645808626918e-01  3.7238023931036152e-01  4.6620603391502002e-01  1.9029727787572184e-01  2.7540550377183032e-01  2.4998909846310605e-01  2.0584523628309298e-01  1.8701983273986558e-01  2.4246392101005826e-01  9.0292774095860256e-02  4.7804136252575113e-01  4.7400922235583220e-01  4.8481917244551143e-01  4.0287264868932748e-01  2.8966178022356942e-01  2.4329847745955374e-01  4.5602414735254054e-01  2.8535473450206877e-01  4.7251554588988798e-01  2.5167935814265119e-01  4.8422062342463823e-01  4.0337348047507093e-01  2.8138310143100831e-01  4.7393767278887833e-01  3.7220850148889323e-01  2.6122505009056141e-01  4.7881020342343716e-01  4.0918276934570064e-01  2.6319698846802669e-01  3.3715864662327411e-01  3.3816011495488268e-01  2.6325137221347150e-01  3.9406991780284267e-01  2.8281759959664993e-01  2.4677414070479481e-01  4.7023431075681610e-01  3.5727071180794753e-02  4.2795645010650496e-01  1.2768346468531658e-01  3.1199551016235783e-01  4.4736745585928828e-01  3.9948350278798961e-01  1.2931278392052595e-01  2.2146138815441913e-01  4.3199654765353573e-01  4.3382861131732309e-01  3.8052669867797417e-01  4.3904216929829698e-01  2.0526913661459542e-01  1.5895692340509487e-01  4.6373272705401725e-01  2.0374380176759035e-01  4.8131731091268448e-01  3.9592731990055363e-01  3.5521571839162269e-01  4.7926721696470298e-01  4.9079532665948239e-01  3.7997106379391916e-02  8.5174146011078991e-02  4.9203128033662524e-01  4.8389100391361023e-01  8.7438990793053312e-02  2.5794980719361166e-01  4.2854952634391730e-01  2.9879177115846262e-01  4.3536210921647495e-01  2.5752341277133778e-01  3.2883299980978675e-01  4.8166560269422887e-01  4.6863625408178089e-01  3.5385048670457336e-01  7.4465669822309982e-02  1.2656565076944781e-01  4.7503942124009144e-02  4.8599218039630343e-01  4.5421019355449710e-01  4.3315122300306408e-01  4.7692826517237541e-01  1.9777792645757661e-01  1.5443741017446438e-01  3.0948615299711418e-01  2.2112436720710277e-01  4.2638870412537572e-01  3.0723687335548654e-02  4.8411449465519624e-01  3.0446594427991797e-01  3.1341759881965170e-01  4.7852041680406110e-01  4.0234321675951901e-01  1.4775172407901810e-01  4.1791581551152085e-01  4.7647624785445480e-01  4.8546998422555082e-01  4.8057883289154030e-01  2.7190337115057622e-01  2.9548645819979780e-01  3.4472801302555162e-01  3.6376441719298930e-01  2.0080563941730992e-01  4.4523419541713916e-01  2.6283988867153329e-02  4.8556129015938765e-01  4.3650011196258648e-01  3.7369968464380349e-01  2.6174511379117493e-01  2.7765987620631449e-01  3.9902563584332829e-01  4.7088389339095466e-01  2.3924658869860188e-01  3.0483610371350656e-01  3.7839949743143048e-01  1.8217009303345150e-01  3.1769104340715565e-01  8.2156131502923613e-02  4.8226596365710533e-01  2.7185727644553248e-01  4.7906838234604371e-01  4.7975120433748586e-01  4.0618612220062322e-01  2.4574859601272939e-01  2.2334990976836422e-01  2.2364500520438524e-01  3.8325348146103405e-01  3.8447582245650547e-01  3.9579514120617609e-01  3.6402709245235942e-01  </DataArray> 
</PointData> 
</Piece>
</UnstructuredGrid>
</VTKFile>