<?xml version="1.0"?>
<VTKFile type="UnstructuredGrid"  version="0.1"  >
<UnstructuredGrid>
<Piece  NumberOfPoints="622" NumberOfCells="1116">
<Points>
<DataArray  type="Float64"  NumberOfComponents="3"  format="ascii">-6 -2 0  -6 2 0  6 2 0  6 -2 0  -2.8 0 0  -1.2 0 0  -5.500000000001853 -2 0  -5.000000000003705 -2 0  -4.500000000005556 -2 0  -4.000000000007409 -2 0  -3.50000000000926 -2 0  -3.000000000011112 -2 0  -2.500000000012963 -2 0  -2.000000000014814 -2 0  -1.500000000016665 -2 0  -1.000000000018516 -2 0  -0.5000000000203677 -2 0  -2.204547655537681e-11 -2 0  0.4999999999796305 -2 0  0.9999999999814779 -2 0  1.499999999983327 -2 0  1.999999999985175 -2 0  2.499999999987029 -2 0  2.999999999988882 -2 0  3.499999999990735 -2 0  3.999999999992589 -2 0  4.49999999999444 -2 0  4.999999999996293 -2 0  5.499999999998147 -2 0  6 -1.500000000001387 0  6 -1.000000000002774 0  6 -0.5000000000041616 0  6 -5.505595979116151e-12 0  6 0.4999999999958384 0  6 0.9999999999972258 0  6 1.499999999998613 0  5.500000000001853 2 0  5.000000000003705 2 0  4.500000000005556 2 0  4.000000000007409 2 0  3.50000000000926 2 0  3.000000000011112 2 0  2.500000000012963 2 0  2.000000000014814 2 0  1.500000000016665 2 0  1.000000000018516 2 0  0.5000000000203677 2 0  2.204547655537681e-11 2 0  -0.4999999999796305 2 0  -0.9999999999814779 2 0  -1.499999999983327 2 0  -1.999999999985175 2 0  -2.499999999987029 2 0  -2.999999999988882 2 0  -3.499999999990735 2 0  -3.999999999992589 2 0  -4.49999999999444 2 0  -4.999999999996293 2 0  -5.499999999998147 2 0  -6 1.500000000001387 0  -6 1.000000000002774 0  -6 0.5000000000041616 0  -6 5.505595979116151e-12 0  -6 -0.4999999999958384 0  -6 -0.9999999999972258 0  -6 -1.499999999998613 0  -2.796147781337886 -0.07841371226233997 0  -2.784628224322852 -0.1560722576115546 0  -2.765552268586196 -0.2322277418021561 0  -2.739103626009626 -0.30614674589063 0  -2.705537011479457 -0.3771173894593519 0  -2.665175689843037 -0.4444561864141836 0  -2.618408362691456 -0.5075146273293722 0  -2.565685424950688 -0.5656854249477874 0  -2.507514627332613 -0.6184083626887972 0  -2.444456186417533 -0.6651756898407991 0  -2.377117389462776 -0.7055370114776264 0  -2.306146745894456 -0.7391036260080417 0  -2.232227741806235 -0.7655522685849585 0  -2.15607225761588 -0.784628224321992 0  -2.078413712266957 -0.7961477813374315 0  -2.000000000003407 -0.7999999999999998 0  -1.921586287739523 -0.7961477813380696 0  -1.843927742389945 -0.7846282243231506 0  -1.767772258198879 -0.7655522685865098 0  -1.693853254109962 -0.7391036260098718 0  -1.622882610540873 -0.7055370114795768 0  -1.555543813585629 -0.6651756898429115 0  -1.49248537267008 -0.6184083626910072 0  -1.434314575051535 -0.5656854249500112 0  -1.381591637310384 -0.5075146273316149 0  -1.334824310158267 -0.4444561864161359 0  -1.294462988521423 -0.3771173894609975 0  -1.260896373990956 -0.3061467458920351 0  -1.234447731414138 -0.2322277418032578 0  -1.215371775677287 -0.156072257612254 0  -1.203852218662147 -0.07841371226267954 0  -1.203852218662115 0.07841371226235888 0  -1.215371775677132 0.156072257611478 0  -1.234447731413795 0.232227741802127 0  -1.260896373990353 0.3061467458905811 0  -1.294462988520456 0.3771173894591898 0  -1.334824310156812 0.444456186413959 0  -1.381591637308413 0.5075146273292139 0  -1.434314575049147 0.5656854249476236 0  -1.492485372667197 0.6184083626886415 0  -1.555543813582104 0.6651756898405565 0  -1.62288261053673 0.7055370114773629 0  -1.693853254105125 0.7391036260078683 0  -1.767772258193396 0.7655522685848468 0  -1.84392774238373 0.7846282243219146 0  -1.921586287732977 0.7961477813374253 0  -1.999999999996558 0.8 0  -2.078413712260516 0.7961477813380661 0  -2.156072257610207 0.7846282243231205 0  -2.232227741801178 0.7655522685864928 0  -2.306146745890059 0.7391036260098632 0  -2.377117389459098 0.7055370114795929 0  -2.444456186414405 0.6651756898428894 0  -2.50751462732998 0.6184083626909587 0  -2.565685424948549 0.5656854249499272 0  -2.61840836268981 0.5075146273313792 0  -2.665175689841831 0.4444561864159886 0  -2.705537011478692 0.3771173894607835 0  -2.739103626009108 0.3061467458918818 0  -2.76555226858589 0.2322277418031643 0  -2.784628224322724 0.1560722576122001 0  -2.796147781337853 0.07841371226267957 0  0.6720367661319522 0.1312687487860887 0  -4.389489086394485 0.3544472233398538 0  -3.816221554046232 -0.6097988664512611 0  -3.552726516474419 0.9342959806851625 0  -0.2536610443052337 0.8162373554653355 0  -0.1843238977799138 -0.6649951410982842 0  -3.613359951620445 0.1086570650978273 0  -3.146954163409593 -1.074378179335012 0  -0.4255266515582625 0.07734891565364931 0  -0.9413731612925856 1.168014724254929 0  -2.947764053183577 1.200029094390044 0  -0.8319852757411681 -1.058626838707328 0  2.675418990747819 -1.137325591670363e-12 0  -2.602010642259726 -1.287560129290477 0  -2.334401622060699 1.335006108940604 0  -1.524718496628401 1.32890816230333 0  -1.369813829148039 -1.26145150481762 0  -3.294065651892671 -0.4630240940010318 0  -2.072749204569071 -1.388981302138359 0  -0.7546165313921411 0.5601792161340381 0  -3.224879719581335 0.4382689715877901 0  -0.7073137361349826 -0.4625305410752652 0  4.326242945813966 0.3262429458150917 0  -3.187880061217201 0.07437712177460168 0  -2.94792024259867 0.7030255657465158 0  -2.678809277907896 0.9152683582887104 0  -4.911626141576894 -0.5700186648601188 0  -2.980647654587299 -0.5685006168686053 0  -2.769438919323564 -0.8202775213660614 0  -1.936950121013948 1.220669938589229 0  -0.8971643766260747 0.2762459428874499 0  -0.8760878018253068 -0.06836412137772707 0  -1.086827485441145 0.6772548942594016 0  -1.31355927028917 0.8808768148414213 0  -1.034266382739347 -0.5912381576649568 0  -1.241594139118264 -0.836771920085274 0  1.667161185638911 -0.6367996576268693 0  1.778189842800902 0.7191719841256095 0  -3.065106827511819 -0.266795371500425 0  3.714311277362231 -0.7275465302492842 0  -1.728329421201519 -1.09954751473283 0  4.870629493137888 -0.7325040699186681 0  -3.024707894719303 0.2567561910603656 0  -4.375540207252226 1.228935704312058 0  -2.272077148001781 -1.086192861256262 0  3.351408248797803 0.9175227128129597 0  -5.141847419540732 0.8091901960109126 0  0.5769368286199241 1.111816231125821 0  0.7411482978492124 -1.079569101289617 0  -1.074013749991219 0.430231207546053 0  -1.04664573441257 -0.3358382377487088 0  -2.439195336951085 0.9224778883059374 0  -2.902607676587358 0.4360473765597399 0  -1.629450174302152 1.035617385691805 0  -2.146859933125513 1.032375363966426 0  2.587625196444542 -0.9999926061845814 0  -2.529286802957126 -0.8830616815739111 0  -1.493798157676768 -0.8794705728517196 0  -1.932158132383022 -1.026681566564148 0  -4.09956359341904 -0.1372485582942864 0  5.055802064425553 1.050933510837308 0  -4.413659685984891 -1.207626391697488 0  -4.961411026474009 0.1201902955685026 0  -3.771151641156835 -1.303594976371997 0  -3.001321503506133 -0.04919177107285733 0  -3.881733605683001 0.5124517634812003 0  -0.1971627317996802 -1.336445372382849 0  -2.742825060181767 0.6732573903735507 0  2.520439429199979 1.129372838786189 0  -1.026326428668429 0.1384273198437734 0  -2.779290004861729 -0.5844691722665721 0  -2.895095740820851 -0.4261289730972082 0  -1.275682076193407 0.6630703172777138 0  0.1045291701958869 0.3433373435296472 0  5.175560481258801 0.0608563229178163 0  -1.211574424201636 -0.5847362589868093 0  -1.85847006217035 1.007917631940711 0  4.152535916385823 1.131901130662082 0  -1.04878257200685 -0.1253529988863012 0  1.432836501626023 0.05634449574318775 0  3.560672936003603 0.01188897172456759 0  -3.351823698389408 -0.1821329582635926 0  -5.145153363200735 -1.259166339382508 0  0.03473693330309885 -0.1724947236036572 0  -4.377830921337186 -0.6172564090242229 0  -0.3943750728122595 1.410897156959435 0  -1.661073679471639 -0.9342065000197183 0  -1.49086536677686 0.8331714487926741 0  -2.584486130952032 0.7871482690034864 0  4.270535884593893 -1.259607924744415 0  -1.757417028085795 -1.505182186951191 0  -3.430586920998477 1.425579221231371 0  -2.917598827418652 -0.2298465409534677 0  -2.328978331116049 -0.9300959620317677 0  -2.148543000691344 -0.9751580214451921 0  1.002654111360038 -0.4521702885594788 0  -4.628651824080903 -0.1127998710567241 0  -2.948904386702482 0.1555943115410545 0  0.4165242577134774 -0.5629432649478633 0  -3.698137692471105 -0.3173027948676715 0  -3.491400684461791 -0.7926319721650269 0  -0.3844454817728994 0.4680628696134375 0  -3.207830713508533 0.9778749990559993 0  3.229909751065535 -1.326302454776001 0  5.330007715336748 -1.312905173261894 0  -2.649214054100534 -0.713314536278899 0  1.342022964818772 -1.328315248672686 0  -2.556460939068198 1.202372762828344 0  -0.3497819755044588 -0.3080427614060888 0  -4.928440909495523 1.387622767511967 0  1.309170811945155 1.337467055109531 0  -1.352031940181449 -0.7151198948590243 0  -0.6132855723904642 0.9519045895123004 0  4.266838388406324 -0.3707357390867402 0  -3.834389788310238 1.371594798941152 0  -1.187890214580146 0.4851427123079557 0  -1.109118888029193 0.3185947354467283 0  0.1837819401738013 1.234799661476361 0  1.108165254659559 0.6237223548284967 0  -0.5266600156584522 -0.8113991260886402 0  -4.643822083543982 0.7834094684931707 0  -1.146235204666366 -0.4027330721405781 0  2.049029845992713 -0.2664662499985428 0  2.002665761665898 -1.328912351029848 0  -1.678783505586872 0.8978832065736417 0  -2.049499525232052 0.9483890761590005 0  -2.229972236535132 0.9181006323151361 0  -3.033763529945482 -1.54240494280775 0  -3.562344364746847 0.5622550957224539 0  -5.524396842903405 -0.2709714867672603 0  -0.9710982764034376 -1.549038578476423 0  3.058819320130555 -0.5375106252795963 0  -4.170365230099585 0.7342553699229977 0  -1.045878746461381 -8.187420622554697e-05 0  -1.864822945411764 -0.9219031104673102 0  -0.6251005091687033 -0.2120650512195049 0  2.317562622406059 0.4886417799113238 0  -0.6674371191466613 0.1483993095055008 0  -2.705757882979874 1.609712312948224 0  
[...]
<PointData  Scalars="f_24"> 
<DataArray  type="Float64"  Name="f_24"  format="ascii">1.0000006735038520e+00  1.0000006735038520e+00  1.0000006735038520e+00  1.0000006735038520e+00  4.1996901943187154e-01  8.9634925433173451e-01  9.8310514101631774e-01  9.6644158826591797e-01  9.4956072974793415e-01  9.3356382863915133e-01  9.1623848016493692e-01  8.8796370472863562e-01  8.4080616958599141e-01  7.8063564731430957e-01  7.7486708480667421e-01  9.2686635157353414e-01  1.0752175603490066e+00  1.1519735951611665e+00  1.1728103439729396e+00  1.1682277080529013e+00  1.1548806788384602e+00  1.1384942822749309e+00  1.1216039229276948e+00  1.1038771890346795e+00  1.0873783665409953e+00  1.0689642376635424e+00  1.0525923991801145e+00  1.0341681266869931e+00  1.0178705363744212e+00  1.0000006735038520e+00  1.0000006735038520e+00  1.0000006735038520e+00  1.0000006735038520e+00  1.0000006735038520e+00  1.0000006735038520e+00  1.0000006735038520e+00  1.0175809297798619e+00  1.0343293479112712e+00  1.0526086185759147e+00  1.0687023253164691e+00  1.0870280541668838e+00  1.1048178452620745e+00  1.1210497608156240e+00  1.1384233060531808e+00  1.1550725739334642e+00  1.1681607091328421e+00  1.1729084207876541e+00  1.1521812326782566e+00  1.0790199618093277e+00  9.1227512542525746e-01  7.9739607781634325e-01  7.8104139202427514e-01  8.3046437986039590e-01  8.8878145984591272e-01  9.1565170406723517e-01  9.3290509540498134e-01  9.4974059295931501e-01  9.6624033660349840e-01  9.8293373742585655e-01  1.0000006735038520e+00  1.0000006735038520e+00  1.0000006735038520e+00  1.0000006735038520e+00  1.0000006735038520e+00  1.0000006735038520e+00  1.0000006735038520e+00  4.2193992105608108e-01  4.2901550601325628e-01  4.2171489174293625e-01  4.3505273509108483e-01  4.2730935325179287e-01  4.6234939049858653e-01  4.4516933042292545e-01  4.9010231815698119e-01  4.6625575521487927e-01  5.1480992474368104e-01  5.0995972033471748e-01  5.6246343412418986e-01  5.7681775418979986e-01  6.1034935355985320e-01  6.2334170967454527e-01  6.2622815444269098e-01  6.0666793087862847e-01  5.6476096426198497e-01  5.2330390844687491e-01  4.9720767261604698e-01  5.0191898877635155e-01  5.3001609989811616e-01  5.7764449463151191e-01  6.3139540970806896e-01  6.8667279417152172e-01  7.3905955588773353e-01  7.8516664937649061e-01  8.2493778059139800e-01  8.5521148698868243e-01  8.7776707393792630e-01  8.9216444363459124e-01  8.9187398502485027e-01  8.7797134526600318e-01  8.5593839218540435e-01  8.2439352091781481e-01  7.8565064374284876e-01  7.3887524299249541e-01  6.8671070800425649e-01  6.3127559573791414e-01  5.7682441318314903e-01  5.2885833582424080e-01  5.0096717911427802e-01  4.9740961326344840e-01  5.2462420717672953e-01  5.6865881900625914e-01  6.0750025303492039e-01  6.2825560435323557e-01  6.2935276560920650e-01  6.0676324005695637e-01  5.9526901738885096e-01  5.6163278312315146e-01  5.1814410812970058e-01  4.7653189208578800e-01  5.0564256337323887e-01  4.4426127214874406e-01  4.6763400559672041e-01  4.5213634799123320e-01  4.4004154925036004e-01  4.2674241742673463e-01  4.3951481272737536e-01  4.2281894805975473e-01  4.2419186615534266e-01  1.1867976240153644e+00  9.4060798711069538e-01  9.1665486470848945e-01  9.1249744580805292e-01  1.0957323665029739e+00  1.1188537290414644e+00  8.9121994485561618e-01  8.9669450941852713e-01  1.0794074375433740e+00  7.9477742754471470e-01  8.8729245591550032e-01  8.4777800168282291e-01  1.1156520985361216e+00  8.3882758789999645e-01  7.7831112353709275e-01  6.0074098529440967e-01  5.7962792773827831e-01  8.6167165384887812e-01  7.3258705771202326e-01  9.3093545687279433e-01  8.4417630900517437e-01  9.6253850214342540e-01  1.0581693290004119e+00  8.0562882844068218e-01  8.1721896246454129e-01  7.8667503444444697e-01  9.6144439403295090e-01  7.9275189042299510e-01  7.8647551955356865e-01  6.2737611786839620e-01  9.2145359627226053e-01  9.4782126622614404e-01  7.5053845828416899e-01  5.3577008925262137e-01  8.0193875607570997e-01  6.0021408624746608e-01  1.1507318435178915e+00  1.1466500791783165e+00  7.6610823466355193e-01  1.0794108703532070e+00  4.8625433823425290e-01  1.0392571284582894e+00  7.4346896979970511e-01  9.4520219513906178e-01  6.9085141731040078e-01  1.0920299373540394e+00  9.7004171988784926e-01  1.1760129109103892e+00  1.1750625489372850e+00  8.3117801700988325e-01  8.6509596479090167e-01  6.8507670664655085e-01  7.1644706885847798e-01  4.4393399447728688e-01  6.3031051522258852e-01  1.1184663570215634e+00  7.0925124300453191e-01  4.5520720789090818e-01  5.5472049882258756e-01  9.2606189293452701e-01  1.0327807135368365e+00  9.4647390883632043e-01  9.6260635180057363e-01  9.2743068144307084e-01  7.0269368589140213e-01  9.1854573100222137e-01  1.1251753936145625e+00  7.1726899379452280e-01  1.1208524958334856e+00  9.0592666015163903e-01  6.9291248878079970e-01  7.0409872697709275e-01  6.5976897030141246e-01  1.1778115293029412e+00  1.0286591393726174e+00  7.2315124370583805e-01  5.2576058868603315e-01  1.0640612603197663e+00  9.0316419029819262e-01  1.1597425550971785e+00  1.0847782385746898e+00  8.5384686675746435e-01  9.7088508598906009e-01  1.1728405772778536e+00  9.4164870986504412e-01  1.0814917270381310e+00  4.4735070675465272e-01  4.7703425751572454e-01  6.8615387196844813e-01  1.0601071546428937e+00  6.9302523535492677e-01  9.1743319205905249e-01  6.5650211006452996e-01  6.4719944088866210e-01  6.0603059574763229e-01  1.1745913926866836e+00  9.4979755603028171e-01  6.6679892230455962e-01  1.1872473188337678e+00  9.0207569836234847e-01  9.0377009245301776e-01  1.0721563499313671e+00  8.9400485783654182e-01  1.0962368092805357e+00  1.0233740722837146e+00  6.8154892192475103e-01  1.1592672647141880e+00  8.1842616079349240e-01  1.0912447533535881e+00  9.6363422128786125e-01  1.1604137135961461e+00  5.9660193894585478e-01  9.6147019621591701e-01  1.0602358462380690e+00  9.2924752742301997e-01  7.7252158831054740e-01  8.5261881381822668e-01  1.1646193533847682e+00  1.1693717112577171e+00  1.0024704361423715e+00  9.5230827054092915e-01  8.1643431586406678e-01  1.1376101837057475e+00  1.1383461588820394e+00  4.6209003298798429e-01  5.8376614064805488e-01  6.0575892041254320e-01  8.9741571128342379e-01  8.9872544327595238e-01  9.8323446816984761e-01  8.8497009420633233e-01  1.1022274042075155e+00  9.3446146358860460e-01  9.1094677472403374e-01  5.3300982688181919e-01  1.0153206152236891e+00  1.1280694199804835e+00  1.0049888978649428e+00  8.6358291344226312e-01  1.1403363456621929e+00  6.8851926898468729e-01  6.3665216691610815e-01  9.5399328707167874e-01  8.7352392583665384e-01  9.8520548442618339e-01  1.1648326902748125e+00  8.2471394697696543e-01  8.7274920613399554e-01  7.5793230008705614e-01  9.1693517473464869e-01  5.6863907033345096e-01  9.7486669746040644e-01  6.1407903586515278e-01  8.3853015104633088e-01  8.7427749602962257e-01  1.1772062990643657e+00  1.0228942757567783e+00  8.5866805780110544e-01  1.1015100393477835e+00  8.9350555910337737e-01  9.8212202787361047e-01  7.9850058897934750e-01  1.1684183442180789e+00  1.0817306698370310e+00  8.5976089436550418e-01  8.5879265859824827e-01  6.9947407686304486e-01  8.7105315064833344e-01  1.0214310667587434e+00  6.1394492507676623e-01  6.2231713215044016e-01  5.8756280721755727e-01  7.9515861630516793e-01  1.1079259298702346e+00  8.2159403559344579e-01  7.6819741498010008e-01  9.7734320628993088e-01  4.7768892631339027e-01  5.9046525834647268e-01  6.0215088456471444e-01  6.6211997079090412e-01  1.0197509501311566e+00  9.2546802605221901e-01  1.0734605399567068e+00  5.8883845151477066e-01  5.7999260994486113e-01  9.5503083805923639e-01  1.0466278771795143e+00  6.0107554244076700e-01  6.1182684848978441e-01  6.1666341951528203e-01  5.9878405266325707e-01  5.4518220517031712e-01  6.5938315758310206e-01  1.0786224725575011e+00  1.0417038485320240e+00  9.3334981137879147e-01  8.9565923047562301e-01  8.1871724828202430e-01  9.1559209948889042e-01  4.4276216282121600e-01  9.4803142545885699e-01  5.1064263614893446e-01  4.7663648713104750e-01  8.7270220653937391e-01  1.0051532170385828e+00  7.5044936059104450e-01  1.0417338805546235e+00  7.1544963272727835e-01  8.0969045339567958e-01  1.1717455853415439e+00  1.1121949026798008e+00  9.5741855892985572e-01  7.6612613480151537e-01  7.0504793194262372e-01  8.8908049053713989e-01  1.1828568113052493e+00  6.5318785898471832e-01  5.8151462706412638e-01  5.8043110748816074e-01  1.1343551024804726e+00  9.7021940286787345e-01  5.6698534540466483e-01  5.6971641536290762e-01  5.7240932653997245e-01  9.3971761658132080e-01  9.3890457707588804e-01  1.1660678964333702e+00  5.1001388478122944e-01  8.9426399248935462e-01  5.8064410828842461e-01  8.9546162083093062e-01  8.8966836244881486e-01  8.4127378054424129e-01  9.5715848739040832e-01  1.1710531511075490e+00  5.9814322084309246e-01  1.1952995009115848e+00  5.6212284448953931e-01  1.1437739644666916e+00  7.6755354796222441e-01  8.8981812991659437e-01  1.0143578638474373e+00  1.0438692897138637e+00  5.8575254443782820e-01  8.9919613276700372e-01  6.5928500808169843e-01  9.8488510202407742e-01  1.1183054870648730e+00  5.7756509357925356e-01  7.1459488942239802e-01  5.8710634014032614e-01  9.8669155419663512e-01  1.0445809053703063e+00  7.5281152275665797e-01  1.1085179021420450e+00  5.6632277766524108e-01  8.1040991522688555e-01  5.0434506479366958e-01  9.3290381924797594e-01  5.9689707267090042e-01  5.8306403217394720e-01  9.2837315373600870e-01  5.8062008420480693e-01  5.0427699739759402e-01  5.8790952364842730e-01  4.4091785611610901e-01  8.1510556586049954e-01  5.2651180973138278e-01  1.1305131201110394e+00  5.5070806102848380e-01  4.9659726091993106e-01  4.9072787018313679e-01  8.2674841559869650e-01  7.6507514639373941e-01  9.2186050154601418e-01  7.3507412287824792e-01  1.0691711451102193e+00  1.0495270847510807e+00  7.8361280982382409e-01  6.0369830298352067e-01  8.7731424787636247e-01  5.9946745543302493e-01  8.5513470707049710e-01  8.6861647640680439e-01  8.4620441518298817e-01  8.0601825472808386e-01  7.2308770693514657e-01  1.1261743634066395e+00  9.2871569290219835e-01  8.8621615508908402e-01  1.0557194604725628e+00  9.2540274652239252e-01  9.0638115852807044e-01  8.3309130309680213e-01  7.6646492191022053e-01  1.1396946058329125e+00  9.3899755133673812e-01  7.1008348315557546e-01  1.0146411053763016e+00  9.6448761100458913e-01  8.9856985309256410e-01  9.7461892143613993e-01  1.1749579279155018e+00  7.9121606506269238e-01  8.9875062500182379e-01  7.3504103880514582e-01  1.0613085759012082e+00  6.8390683515524853e-01  7.7436032762971196e-01  9.1376992340861984e-01  1.0130354582574921e+00  6.5272088370110981e-01  7.8648815594399046e-01  1.1342957202866757e+00  8.4369156263376033e-01  9.2450485920740455e-01  1.1461844157616565e+00  5.4782706929377989e-01  1.0154349032122061e+00  1.1619005296718596e+00  5.9449085839434312e-01  6.0152582366065588e-01  9.5189346909134165e-01  7.1601496567644241e-01  7.4372872249538424e-01  5.4796477986187342e-01  6.0242735441242012e-01  1.1490618418765568e+00  1.1012127558569131e+00  1.0886233193607509e+00  1.1076403410214606e+00  9.5681821544687617e-01  1.0907093112790303e+00  9.6497691088650861e-01  9.0740534559800401e-01  1.0193959059803706e+00  9.1251024215635435e-01  1.0623796385969486e+00  9.8000282891503709e-01  8.7766044396323917e-01  1.1714334984428429e+00  1.1588709413886322e+00  8.8370787238894444e-01  1.1697759825232577e+00  9.5157614133997703e-01  1.1698659558407103e+00  1.1300299877880164e+00  9.7663642286422614e-01  9.1114732310498714e-01  9.6839654021348254e-01  1.1318261913040963e+00  7.4615079554152930e-01  1.1039184254503005e+00  1.1923865842267580e+00  7.2128969120017250e-01  1.1792843957346071e+00  5.3909570146562069e-01  1.0040642405483626e+00  1.0945357772378987e+00  4.9368540496223706e-01  1.0085910473869844e+00  1.0139483962149660e+00  1.0610404438056669e+00  1.1288851957832984e+00  1.1495974812624872e+00  9.4756049161718692e-01  1.0331025438877364e+00  1.1510466883576542e+00  6.6254856983239852e-01  4.3879805437375563e-01  1.1130977922383736e+00  9.0977164163920221e-01  8.8618426481619950e-01  1.0725887131416898e+00  7.7422526775066458e-01  8.4169371703036688e-01  7.2189191322046331e-01  8.7964385299766701e-01  8.9750596335753507e-01  1.0478080874182956e+00  5.8357844841945439e-01  9.3161736584793686e-01  9.4341191906227673e-01  5.8078916661924784e-01  1.0326925889748113e+00  1.0455781930126000e+00  6.6071497195136941e-01  1.0748001511080227e+00  9.1467617807693147e-01  8.6579529616421436e-01  5.8773924153315205e-01  8.7893458326946527e-01  9.3501470866834480e-01  1.0456082370494746e+00  7.9141879416308880e-01  7.2823193333665692e-01  4.8823745631328735e-01  8.4337284735739670e-01  6.3834244977063492e-01  1.1903688103559282e+00  9.2766573576404809e-01  7.6471778285798964e-01  7.1475608779386779e-01  5.9663047096409239e-01  9.4348527248742242e-01  1.0792887446159569e+00  8.4055719874257595e-01  4.7820898762024749e-01  8.0730218101481943e-01  1.0027856445445116e+00  9.2267146831810065e-01  8.4262926079999656e-01  1.0123787978974197e+00  9.8830911212235573e-01  9.7216706490510307e-01  1.0958399668743779e+00  1.1622938840131523e+00  1.1732931447019146e+00  1.0273135646787881e+00  9.8815177298949364e-01  1.1428393749974894e+00  1.1504391733454895e+00  9.0690398717125587e-01  1.1617029953215274e+00  8.8284380945846608e-01  9.5265840823404979e-01  9.3255171763932942e-01  5.5662744490722171e-01  1.0958829477298244e+00  6.3401151080422069e-01  7.3127870078347201e-01  9.3858406167370301e-01  1.0304566442637686e+00  8.9865229120372925e-01  1.1675152444389256e+00  1.1831282552926723e+00  9.7559553187314230e-01  1.1743624044371463e+00  1.1192818193130418e+00  1.0758590589077706e+00  7.6809806352966492e-01  1.0895224056109885e+00  1.0685170743316843e+00  4.7768650791704337e-01  1.1792389457572305e+00  7.2542390946885615e-01  1.1372958273290426e+00  1.0102204620227333e+00  7.5665463938500710e-01  8.3297635729344710e-01  8.8087053982144359e-01  9.1812229101606391e-01  1.0585088463343815e+00  6.0204651154518951e-01  1.1597999653616464e+00  8.4955065081577141e-01  9.6068405716792915e-01  5.3132193008832440e-01  9.4478405129649390e-01  5.2851570175361606e-01  5.8495883830500872e-01  9.6119149911973700e-01  1.1660838225509926e+00  1.1676776958813322e+00  9.2221377849043051e-01  1.0109420576307233e+00  1.0683530037315536e+00  1.1506109773651747e+00  8.3706808973338354e-01  6.9569397216000406e-01  8.9610936424187160e-01  9.6382837850684755e-01  6.6199307017894382e-01  5.9062349456261065e-01  1.1397979388582267e+00  6.7211220748083078e-01  9.9041244585708166e-01  9.3625967288210754e-01  7.6519450631352537e-01  9.1123581117336894e-01  9.6862292813900386e-01  7.6199552553137240e-01  7.8514720950088868e-01  9.8904500855506783e-01  1.0558691379904281e+00  1.1265771581213544e+00  8.6912884666557211e-01  9.8977594239235234e-01  8.9851276584903483e-01  9.7336062845058957e-01  8.6872769223930091e-01  6.7797200667287227e-01  9.6621112989224145e-01  </DataArray> 
</PointData> 
</Piece>
</UnstructuredGrid>
</VTKFile>