<?xml version="1.0"?>
<VTKFile type="UnstructuredGrid"  version="0.1"  >
<UnstructuredGrid>
<Piece  NumberOfPoints="406" NumberOfCells="722">
<Points>
<DataArray  type="Float64"  NumberOfComponents="3"  format="ascii">-6 -2 0  -6 2 0  6 2 0  6 -2 0  -2.8 0 0  -1.2 0 0  -5.500000000001853 -2 0  -5.000000000003705 -2 0  -4.500000000005556 -2 0  -4.000000000007409 -2 0  -3.50000000000926 -2 0  -3.000000000011112 -2 0  -2.500000000012963 -2 0  -2.000000000014814 -2 0  -1.500000000016665 -2 0  -1.000000000018516 -2 0  -0.5000000000203677 -2 0  -2.204547655537681e-11 -2 0  0.4999999999796305 -2 0  0.9999999999814779 -2 0  1.499999999983327 -2 0  1.999999999985175 -2 0  2.499999999987029 -2 0  2.999999999988882 -2 0  3.499999999990735 -2 0  3.999999999992589 -2 0  4.49999999999444 -2 0  4.999999999996293 -2 0  5.499999999998147 -2 0  6 -1.500000000001387 0  6 -1.000000000002774 0  6 -0.5000000000041616 0  6 -5.505595979116151e-12 0  6 0.4999999999958384 0  6 0.9999999999972258 0  6 1.499999999998613 0  5.500000000001853 2 0  5.000000000003705 2 0  4.500000000005556 2 0  4.000000000007409 2 0  3.50000000000926 2 0  3.000000000011112 2 0  2.500000000012963 2 0  2.000000000014814 2 0  1.500000000016665 2 0  1.000000000018516 2 0  0.5000000000203677 2 0  2.204547655537681e-11 2 0  -0.4999999999796305 2 0  -0.9999999999814779 2 0  -1.499999999983327 2 0  -1.999999999985175 2 0  -2.499999999987029 2 0  -2.999999999988882 2 0  -3.499999999990735 2 0  -3.999999999992589 2 0  -4.49999999999444 2 0  -4.999999999996293 2 0  -5.499999999998147 2 0  -6 1.500000000001387 0  -6 1.000000000002774 0  -6 0.5000000000041616 0  -6 5.505595979116151e-12 0  -6 -0.4999999999958384 0  -6 -0.9999999999972258 0  -6 -1.499999999998613 0  -2.776753453941174 -0.1914525314286965 0  -2.708364820523325 -0.3717785376335722 0  -2.598808598538216 -0.5304981265911284 0  -2.454451797386757 -0.65838709271366 0  -2.283683909636528 -0.748012994147384 0  -2.096429344207466 -0.7941670992780535 0  -1.903570655798842 -0.7941670992788195 0  -1.716316090368095 -0.7480129941491368 0  -1.545548202616307 -0.6583870927157747 0  -1.401191401463757 -0.530498126593356 0  -1.291635179477527 -0.371778537635196 0  -1.223246546059047 -0.1914525314295925 0  -1.223246546058803 0.1914525314286035 0  -1.291635179476594 0.3717785376334188 0  -1.401191401461634 0.5304981265909601 0  -1.545548202612898 0.6583870927134221 0  -1.716316090363093 0.7480129941472402 0  -1.903570655792394 0.7941670992780367 0  -2.096429344201276 0.7941670992788055 0  -2.283683909631911 0.7480129941491347 0  -2.454451797383697 0.6583870927157729 0  -2.598808598536385 0.530498126593196 0  -2.70836482052258 0.3717785376349917 0  -2.776753453940975 0.1914525314295042 0  0.4588466633941945 0.2704149791022056 0  -4.424312812173863 0.2760319703992994 0  -3.803977598762586 -0.6841584599595646 0  -0.1330968762779425 -0.6798763971615133 0  2.451109587541276 3.169800318630399e-13 0  -3.563610936250569 0.5929994091167295 0  4.204753319582647 0.2820669554523581 0  -0.4390897559348154 0.6178095532273566 0  -3.041446812595122 1.175550440315544 0  -0.9622132806516797 1.132103015222783 0  1.069493318942931 -0.773608156980569 0  -4.924330687080279 -0.7127064269610045 0  -3.024693497948964 -1.195179289656404 0  -0.9648749555625579 -1.256854520022574 0  -3.443624282349383 -0.2044158249759613 0  -0.5611500783757608 -0.1747080110423833 0  1.60270880116926 0.7487034276124258 0  3.488352576142236 -0.8228939860777884 0  4.816375011670135 -0.8163750116689444 0  3.243628045085357 0.8578172796997985 0  -4.228632884234073 1.228069101636678 0  -2.365220384435482 -1.356128547810356 0  -1.637465979486354 1.3571687267915 0  -1.642380978561139 -1.359365080147485 0  -2.362988915989869 1.356737096243695 0  -5.134120367293631 0.8356299802910161 0  2.077496878467794 -0.9514080034522553 0  4.960859291178299 0.9608592911785537 0  0.3293120056474302 1.148965409695154 0  -5.157560560414062 0.09447106214747865 0  -3.14779387667392 -0.6330563038825547 0  -3.148134455585257 0.4354299640428653 0  -0.8464439673630421 0.4159277415926296 0  -0.9918125625721008 -0.7191748422889824 0  -4.355349213295776 -1.234510499778242 0  1.582074659164868 -0.06850205959954866 0  2.400584045214166 1.204278622181321 0  5.102831660739063 0.03453404176596848 0  4.083259768981113 1.154272958349666 0  -3.992394834362243 -0.1621022234411988 0  0.4290302718942113 -1.225465289645401 0  -3.681487986394671 -1.310544246656267 0  -3.640289698916164 1.187023654838123 0  0.468851680921228 -0.447055967952278 0  3.315209904217932 0.05667935655546536 0  -2.541160649745046 -1.046980928586996 0  -1.45196684542695 1.044189935346116 0  -2.000844595891861 -1.207983108473125 0  -1.453092202970521 -1.061139264918894 0  -2.000050543938391 1.207806685704176 0  -2.548033154566413 1.04418993534851 0  4.13054585796652 -1.232871249381608 0  -0.3301617095463629 1.221692405319566 0  -0.2880491989587189 -1.359626628407983 0  -0.0758941643813178 0.132275811829787 0  2.826389221580753 -1.233168480096227 0  -2.922070412327736 0.7575752117792038 0  1.003070890178416 1.271347915034201 0  -5.319521816151902 -1.310543894393663 0  -1.070407062963812 0.7877698545098388 0  -4.562499863038985 -0.2302396981426722 0  -3.164226661545047 0.07179577787350272 0  -0.9091377812900333 0.132454654016971 0  4.116029045943655 -0.4851826871817362 0  5.316659189209927 -1.316659189208741 0  -0.9498828454673396 -0.4149758979014553 0  -4.037769805263969 0.6896174350675625 0  1.431664772855882 -1.327784137638992 0  -3.646693623568034 0.1600006358878044 0  -2.878371345483476 -0.7910345833001061 0  1.062603041385242 0.2894765870627741 0  -0.547955103783681 0.1635272504420374 0  -4.804809838419659 1.41016301576038 0  -3.042895319571192 -0.3694931303482478 0  -4.59252578392403 0.792267765362792 0  2.823271260730033 -0.5472430318427347 0  -4.28575390662405 -0.7521491832384866 0  -0.5524005545121191 -0.9037367558558163 0  1.815219025072439 1.388812135783969 0  -1.288398729718543 -0.8178399475601057 0  -5.424388493366639 1.35375165044146 0  -2.256991952837567 -1.049538527273222 0  -1.739586738723494 -1.052327527873255 0  -1.738827359988536 1.050180627239116 0  -2.257795730428802 1.049701225145305 0  -0.62222340523776 -0.5483611729237363 0  2.065188519029698 0.5424877383589943 0  0.1055865106318892 0.7347782870471022 0  1.013082573993895 -0.2061877611231605 0  -5.428323520618333 -0.4386412085227075 0  5.374041502384443 -0.5304401760993408 0  3.435185060219232 -1.377658617395091 0  -3.302377238490527 0.8841390072780534 0  -0.9902123298072768 -0.124175295282554 0  0.7186958547669859 0.8724503317343631 0  2.941237214953417 1.390391532351976 0  4.708037787864423 -1.340276032051348 0  5.395029680982659 1.395029680983341 0  3.591022587550188 1.348260650408605 0  2.759385971589342 0.4857447325740718 0  -0.6832705231418494 0.8879387563573758 0  5.437781298507145 0.5981501503262471 0  -2.698603003287285 1.617130043745112 0  -3.463358189947519 -1.013588318179017 0  1.710866040171871 -0.6978716337870808 0  3.642182982762737 0.4555704362064124 0  -2.699802128031161 -1.618310703146212 0  -1.3020054856637 1.619819977935582 0  -2.000000000004996 -1.566396763829867 0  -1.999999999994794 1.566396763830688 0  -1.247812462071684 -1.595232739507426 0  4.59429106759859 1.420052135572917 0  0.9448382581152466 -1.440259145469251 0  -0.116376100998861 -0.2606209011258676 0  -4.774521510507792 0.4245390872783272 0  -2.983910172370106 -0.1208000607277856 0  -3.353983741142061 1.576062863985777 0  -5.473352579109997 0.4917619255280954 0  -4.828650470275986 -1.493148538517745 0  4.639973657165532 -0.2833178611094909 0  -2.660279445404468 0.7699932347178977 0  -1.335045190775955 0.7744876666923373 0  -3.395669172689978 0.2584951122361346 0  2.279110606119369 -1.465899541383697 0  4.734317729212562 0.4520963557364723 0  -0.6334913028224612 1.584213953723378 0  2.121854101359879 -0.4289611127787379 0  -3.474459720833238 -0.4977581316675216 0  -1.066539898844178 0.3411379476537602 0  -3.361849707555382 -1.611428512420182 0  -4.099039818938317 0.3306400369415774 0  -2.935324777364672 0.354721898811665 0  -3.973578595052027 1.482940358734671 0  3.784450148635689 -0.0702780807301525 0  -1.191348122671212 -0.5614501189722798 0  -2.838672605956353 -0.5493179047027598 0  -1.184983441257359 0.5617520886612424 0  -2.811184099847449 0.5574240755049175 0  0.2702752249355158 -0.8003643570420809 0  -0.6945947797857237 -1.593893965175195 0  0.001175881878679056 1.504521009023778 0  0.6072931735145096 1.501814722697789 0  -3.991896293645949 -1.047264188412552 0  -3.734097395159253 -0.3261671578666079 0  -5.539652387691843 -0.8857154182585802 0  -4.395061924111849 1.563293728588296 0  0.2258327611651416 -0.08745142624872881 0  -3.774816634825771 0.8676973328379478 0  2.208484493569073 1.6256686312487 0  0.1309939514660535 -1.566169703482512 0  -5.551414360955331 0.9459842275970113 0  -4.04734138658365 -1.51163984963472 0  -4.947145019546805 -0.3299925153029702 0  4.320410447198621 0.6970857582435144 0  -4.707557346727139 -1.000565649857444 0  1.353711468973986 1.582551234446199 0  1.674156483558973 0.3266252271732694 0  -4.039105552973997 -0.4537604746027087 0  0.01051727619263377 -1.088858357362194 0  -0.2234942609176301 0.8619127912343982 0  -2.95903482691863 0.1219373374385197 0  -4.682467695920681 0.0804575682243254 0  5.535750224195656 -0.1525732643419722 0  -4.290083947414376 -0.0005258314026840717 0  1.136102562417988 0.7655312464039168 0  -2.816589394567214 0.9927597419785312 0  -2.645374456162409 -0.7645902451387543 0  4.18414576655837 1.624276131878667 0  0.7127337088822223 -0.9006358935856398 0  1.972418102153911 0.9727040774616764 0  -2.42199174813501 0.8591219219254587 0  -2.418604734200992 -0.8552987735117754 0  -5.573597213364169 -0.03612430678117123 0  2.024792870869397 0.05574071630590883 0  -1.578875191508968 0.861424470724936 0  -1.54706008231699 -0.8630049102346303 0  3.848662181064435 -1.569601980075533 0  -2.000000000003871 -0.9746445732264465 0  -1.99999999
[...]
<PointData  Scalars="f_24"> 
<DataArray  type="Float64"  Name="f_24"  format="ascii">-2.5622240022828457e-01  -2.5622240022828457e-01  0.0000000000000000e+00  0.0000000000000000e+00  -6.2146849656931924e-01  1.1444670417038874e-01  -2.7197291095125115e-01  -2.8659910921465231e-01  -3.0106353259524227e-01  -3.1391581013342607e-01  -3.2362729205753965e-01  -3.2149419256183120e-01  -2.9786887689290115e-01  -2.0604631955443056e-01  -6.9717000734931950e-02  4.8340004475841636e-02  1.1331943203855765e-01  1.4060186747043074e-01  1.4581945609997635e-01  1.4131061209824172e-01  1.3232835052326278e-01  1.2017683147904698e-01  1.0655983401801683e-01  9.2442454063574958e-02  7.7782198498252506e-02  6.2459987836559726e-02  4.7070504509585963e-02  3.1624718763503812e-02  1.5931271852214476e-02  0.0000000000000000e+00  0.0000000000000000e+00  0.0000000000000000e+00  0.0000000000000000e+00  0.0000000000000000e+00  0.0000000000000000e+00  0.0000000000000000e+00  1.5917446739059714e-02  3.1634227421994350e-02  4.7272000366820457e-02  6.2594869280999083e-02  7.7710822782038086e-02  9.2468994594242598e-02  1.0676330112751128e-01  1.2026350690293512e-01  1.3185334784501002e-01  1.4136378380413558e-01  1.4583215883501011e-01  1.3987110151667148e-01  1.1442554242532776e-01  4.7270689891175159e-02  -6.8640932005601410e-02  -2.0621353532333009e-01  -2.9790946487218656e-01  -3.2130790560193845e-01  -3.2375071187387605e-01  -3.1379101097409623e-01  -3.0099736373747782e-01  -2.8688231236231565e-01  -2.7192420778899518e-01  -2.5622240022828457e-01  -2.5622240022828457e-01  -2.5622240022828457e-01  -2.5622240022828457e-01  -2.5622240022828457e-01  -2.5622240022828457e-01  -2.5622240022828457e-01  -6.1352905021822257e-01  -5.9305008448229446e-01  -5.3987125552487925e-01  -4.5108875458019976e-01  -3.4162845944555903e-01  -2.1364644669689048e-01  -9.0136577820867050e-02  1.1317026758099497e-02  7.2088766138537652e-02  1.0115556421671620e-01  1.1024645155792134e-01  1.1364974109162441e-01  1.1354236204288805e-01  1.1029207251015312e-01  1.0027318882088848e-01  7.2990360882611557e-02  1.1855950343006204e-02  -9.0301720555388459e-02  -2.1361268511915063e-01  -3.4111325155064903e-01  -4.5190448081667134e-01  -5.3900969274157395e-01  -5.9060750975426657e-01  -6.1520318331384904e-01  1.3089526476489857e-01  -3.1587904770262337e-01  -3.3845243548718135e-01  1.2458791525809206e-01  1.0363626852300817e-01  -3.6160115491772143e-01  5.5171422949086286e-02  1.1535301039255463e-01  -3.2655868199449783e-01  5.3035550497810349e-02  1.3170985962912235e-01  -2.9158512380259105e-01  -3.2436323041182497e-01  4.6505187091781641e-02  -4.0314185803110852e-01  1.1605732497998467e-01  1.2374184312259875e-01  7.6646588306136090e-02  3.6795164784959103e-02  8.3781976722644064e-02  -3.0773927578051646e-01  -2.7542611071928141e-01  -1.1502590871454667e-01  -1.1643456043427663e-01  -2.7503700640562856e-01  -2.8396540246130592e-01  1.1458159544573868e-01  3.2454385425093352e-02  1.3521513862581383e-01  -2.8565673590393881e-01  -4.0084590918643637e-01  -4.3626071630973290e-01  1.0467092427608560e-01  8.1511795445816576e-02  -3.0435594279480471e-01  1.2178277816265214e-01  1.0742959261452736e-01  2.7805242812048978e-02  5.9433211026927980e-02  -3.4351908581259816e-01  1.3660767181428754e-01  -3.1664633643618573e-01  -3.1992880018286329e-01  1.3164896773730655e-01  8.0896636780926887e-02  -3.3660858218726192e-01  -3.3911515043041948e-02  -2.1781752236915355e-01  -3.6303702279849262e-02  -2.1760041694835694e-01  -3.3826805434808815e-01  5.7992803157128514e-02  1.1429240544039727e-01  1.1670818955737827e-01  1.2551324101768138e-01  9.6064298370832815e-02  -4.0395411227953071e-01  1.3546820497591258e-01  -2.7696950039020973e-01  6.6800224137728598e-02  -3.0962382193470728e-01  -4.6910098701440406e-01  1.1133115498255809e-01  5.7895269715906861e-02  2.1390169264186205e-02  1.0257386612097774e-01  -3.2670007054167288e-01  1.2979556376335313e-01  -3.7685853928413310e-01  -3.9931287261257509e-01  1.2900678710385954e-01  1.1634549068903385e-01  -2.9172699040667094e-01  -4.7374979771099590e-01  -3.0245881399656860e-01  9.4748893865267442e-02  -3.1410412024064222e-01  1.0429172904214899e-01  1.2214361416932158e-01  4.2952349778930671e-02  -2.7378809269207338e-01  -2.9608130667222232e-01  -1.1787938274745019e-01  -1.1714413142942577e-01  -2.9619577263757363e-01  1.0955856398874678e-01  1.1345206528917202e-01  1.2979496658236317e-01  1.2917702557202698e-01  -2.7509057911794949e-01  1.9475645324387662e-02  7.8889480873005735e-02  -3.5233174407370127e-01  1.1143361503198881e-01  1.3469882667543576e-01  9.3102774205036876e-02  4.0385045105845417e-02  1.9043750810269031e-02  7.4268541079407946e-02  9.6350738096079913e-02  9.5698683234920909e-02  1.7551379093707312e-02  -2.9227407481718909e-01  -3.3311656117007016e-01  1.2155133737057097e-01  7.1816668431541886e-02  -2.9238938453511615e-01  -2.9100571774101157e-02  -2.0107873527879858e-01  -2.0104881956960530e-01  -1.5308229100413153e-02  4.3987714389879806e-02  1.3716880791330302e-01  1.2488868337731268e-01  -2.9923001390920606e-01  -5.3084797809186046e-01  -3.1367793111361353e-01  -2.7365998103112926e-01  -2.9086034857612059e-01  4.2000977776017204e-02  -4.2562934965198812e-01  4.7757084987113237e-02  -4.0624358562009238e-01  1.1118155111511831e-01  3.9199197614686973e-02  8.6483886982703234e-02  1.1185667098962834e-01  -3.7795336110466382e-01  1.0623940102881532e-01  -3.1449306082887502e-01  -3.3350890961226193e-01  -5.1150686260180833e-01  -3.1065944299586834e-01  6.7493178590392625e-02  8.9955466918437338e-02  -4.8248427037020575e-01  9.0430337826922308e-02  -4.8798461978291202e-01  1.3262618082900879e-01  8.1005145347116850e-02  1.2934535286944635e-01  1.3865696391427765e-01  -3.1688442717181015e-01  -3.6166361106072020e-01  -2.7074614462789903e-01  -3.0211951745904964e-01  1.2916395377536671e-01  -3.3125003843919437e-01  1.1336105932977501e-01  1.3424757369407661e-01  -2.7036702634520371e-01  -3.0942325937223025e-01  -2.9296556682999259e-01  5.1912493728439195e-02  -2.9634845911065699e-01  1.3209821428997767e-01  1.2076422872532103e-01  -3.3412999675806437e-01  1.2880296090485668e-01  1.2200870153225679e-01  -5.4211507952710303e-01  -3.0462867995624526e-01  1.4404444570564372e-02  -3.2472207654374374e-01  1.3085199492639990e-01  -3.5430756859006934e-01  -4.2795436859715097e-01  5.6754343914006258e-02  1.3494590221077818e-01  1.1713464546755985e-01  -3.7571266509895485e-01  -3.7525457707361404e-01  -2.7032971386859761e-01  1.1338565507690630e-01  -9.7135519902333475e-03  -3.9300880616042581e-03  6.6665121752337297e-02  -2.0083872406345596e-01  -2.0079495260856597e-01  -3.1058161126444211e-01  7.2122265833309204e-02  2.2588217248546254e-02  1.3066896087907284e-01  1.2423772977692368e-02  1.3010062018757707e-02  9.5504701952265084e-02  -1.4496722573850405e-02  3.1166034966685088e-02  1.0337445775645636e-01  5.0328257763256376e-02  5.4429157784101151e-02  1.2428581871444684e-01  1.2930535845488134e-01  -4.2150269829519477e-01  9.2728221917711406e-02  -3.1003554112224008e-01  -3.9467066014735747e-01  6.4286222674009574e-02  8.2404714700830800e-02  3.1438570669892717e-02  1.2088419308171275e-01  1.2495041157830741e-01  1.1316174039277344e-01  -2.1931787244157532e-02  9.8857582292650903e-02  -3.5196040438398679e-01  1.4055727638419818e-01  -3.5287263279029485e-01  -2.6880772445775752e-01  8.5368997951127151e-02  1.1040198837579596e-01  -2.9273666584920266e-01  -3.2452368981478075e-01  9.3385197359066585e-02  -3.0096396049136492e-01  8.8908893863293009e-02  9.8665375558370710e-02  1.3371937276063053e-01  -2.5351409936139407e-01  -1.2468460469242676e-01  -1.2303802723398999e-01  -2.5344242154476143e-01  1.2847857504815477e-01  -3.2010952280148197e-01  8.4856662167869551e-02  8.4797253220619637e-02  1.2493727343524266e-02  -2.8437698558047941e-01  -4.7659842190582946e-01  -3.1510297889993027e-01  1.3676669506149733e-01  1.2695208572679734e-01  4.4771227017418189e-02  -3.9171299253438041e-01  1.3164707758738367e-01  -2.8166989228856504e-01  -3.0426794349801911e-01  -2.7993182113567738e-01  -4.1488551388510964e-01  -4.5205624019060109e-01  1.2888154941321611e-01  6.9690740882701677e-02  1.1173288984874036e-01  1.2811714551769240e-01  -3.1486473446657004e-01  1.1819061007388608e-01  1.1266160510285431e-01  1.3130288343229421e-02  2.9630077621691599e-02  1.0791225039039265e-01  1.1660601937142538e-01  3.0185010030651018e-02  8.8524765671135541e-02  -2.8370593837284402e-01  1.0190748283008710e-01  1.3165044871711537e-01  -3.7566433830319224e-01  -3.1692697945450515e-01  -2.6569339387649737e-01  8.0906556137233424e-02  -3.1113972032619575e-01  2.5823328825089462e-02  4.3575773321714237e-02  -5.4551068708032091e-01  1.2153713034797788e-01  1.3256935062156075e-01  1.3817167858276047e-01  -2.6732927749227792e-01  6.8374886160423240e-02  5.3032262481579315e-02  -3.1484756764302618e-01  -3.4584058035521098e-01  -2.8648085134549317e-01  1.0839281340812208e-02  1.1195519576894683e-01  1.0188359921575865e-01  1.0517658237427689e-01  1.1979696645462749e-01  1.2646770371281751e-01  -4.4672473236979582e-01  1.3306000593530770e-01  1.2798070633922817e-01  -2.6438101119723134e-01  9.3966517724275930e-02  -3.0882677171929523e-01  -3.5075838978917750e-01  -3.2204722631316118e-01  1.2097999413166105e-01  6.9108508996179152e-02  3.9382621698439035e-02  9.1692855602127678e-03  -2.6460761083128537e-01  -2.8220815960557138e-01  1.2496017638167914e-01  -3.5504719786203937e-01  -3.4409554504969975e-01  -2.9296990005510093e-01  1.3886726041232095e-01  -3.5238004109876697e-01  -3.2820535945381540e-01  -3.0018604156261991e-01  6.2585135209015028e-02  1.0582603287576214e-01  2.8396837525573371e-02  6.8850116181934207e-02  -3.0867362171388468e-01  1.1504221564800901e-01  1.1952095973977263e-01  -2.9336979013795345e-01  8.4164211159506813e-02  -2.9137543414335515e-01  -2.9101294403110328e-01  -7.7366595209507241e-02  -7.5559780715281979e-02  1.2609160493898411e-01  1.1857818258963529e-01  </DataArray> 
</PointData> 
</Piece>
</UnstructuredGrid>
</VTKFile>