<?xml version="1.0"?>
<VTKFile type="UnstructuredGrid"  version="0.1"  >
<UnstructuredGrid>
<Piece  NumberOfPoints="622" NumberOfCells="1116">
<Points>
<DataArray  type="Float64"  NumberOfComponents="3"  format="ascii">-6 -2 0  -6 2 0  6 2 0  6 -2 0  -2.8 0 0  -1.2 0 0  -5.500000000001853 -2 0  -5.000000000003705 -2 0  -4.500000000005556 -2 0  -4.000000000007409 -2 0  -3.50000000000926 -2 0  -3.000000000011112 -2 0  -2.500000000012963 -2 0  -2.000000000014814 -2 0  -1.500000000016665 -2 0  -1.000000000018516 -2 0  -0.5000000000203677 -2 0  -2.204547655537681e-11 -2 0  0.4999999999796305 -2 0  0.9999999999814779 -2 0  1.499999999983327 -2 0  1.999999999985175 -2 0  2.499999999987029 -2 0  2.999999999988882 -2 0  3.499999999990735 -2 0  3.999999999992589 -2 0  4.49999999999444 -2 0  4.999999999996293 -2 0  5.499999999998147 -2 0  6 -1.500000000001387 0  6 -1.000000000002774 0  6 -0.5000000000041616 0  6 -5.505595979116151e-12 0  6 0.4999999999958384 0  6 0.9999999999972258 0  6 1.499999999998613 0  5.500000000001853 2 0  5.000000000003705 2 0  4.500000000005556 2 0  4.000000000007409 2 0  3.50000000000926 2 0  3.000000000011112 2 0  2.500000000012963 2 0  2.000000000014814 2 0  1.500000000016665 2 0  1.000000000018516 2 0  0.5000000000203677 2 0  2.204547655537681e-11 2 0  -0.4999999999796305 2 0  -0.9999999999814779 2 0  -1.499999999983327 2 0  -1.999999999985175 2 0  -2.499999999987029 2 0  -2.999999999988882 2 0  -3.499999999990735 2 0  -3.999999999992589 2 0  -4.49999999999444 2 0  -4.999999999996293 2 0  -5.499999999998147 2 0  -6 1.500000000001387 0  -6 1.000000000002774 0  -6 0.5000000000041616 0  -6 5.505595979116151e-12 0  -6 -0.4999999999958384 0  -6 -0.9999999999972258 0  -6 -1.499999999998613 0  -2.796147781337886 -0.07841371226233997 0  -2.784628224322852 -0.1560722576115546 0  -2.765552268586196 -0.2322277418021561 0  -2.739103626009626 -0.30614674589063 0  -2.705537011479457 -0.3771173894593519 0  -2.665175689843037 -0.4444561864141836 0  -2.618408362691456 -0.5075146273293722 0  -2.565685424950688 -0.5656854249477874 0  -2.507514627332613 -0.6184083626887972 0  -2.444456186417533 -0.6651756898407991 0  -2.377117389462776 -0.7055370114776264 0  -2.306146745894456 -0.7391036260080417 0  -2.232227741806235 -0.7655522685849585 0  -2.15607225761588 -0.784628224321992 0  -2.078413712266957 -0.7961477813374315 0  -2.000000000003407 -0.7999999999999998 0  -1.921586287739523 -0.7961477813380696 0  -1.843927742389945 -0.7846282243231506 0  -1.767772258198879 -0.7655522685865098 0  -1.693853254109962 -0.7391036260098718 0  -1.622882610540873 -0.7055370114795768 0  -1.555543813585629 -0.6651756898429115 0  -1.49248537267008 -0.6184083626910072 0  -1.434314575051535 -0.5656854249500112 0  -1.381591637310384 -0.5075146273316149 0  -1.334824310158267 -0.4444561864161359 0  -1.294462988521423 -0.3771173894609975 0  -1.260896373990956 -0.3061467458920351 0  -1.234447731414138 -0.2322277418032578 0  -1.215371775677287 -0.156072257612254 0  -1.203852218662147 -0.07841371226267954 0  -1.203852218662115 0.07841371226235888 0  -1.215371775677132 0.156072257611478 0  -1.234447731413795 0.232227741802127 0  -1.260896373990353 0.3061467458905811 0  -1.294462988520456 0.3771173894591898 0  -1.334824310156812 0.444456186413959 0  -1.381591637308413 0.5075146273292139 0  -1.434314575049147 0.5656854249476236 0  -1.492485372667197 0.6184083626886415 0  -1.555543813582104 0.6651756898405565 0  -1.62288261053673 0.7055370114773629 0  -1.693853254105125 0.7391036260078683 0  -1.767772258193396 0.7655522685848468 0  -1.84392774238373 0.7846282243219146 0  -1.921586287732977 0.7961477813374253 0  -1.999999999996558 0.8 0  -2.078413712260516 0.7961477813380661 0  -2.156072257610207 0.7846282243231205 0  -2.232227741801178 0.7655522685864928 0  -2.306146745890059 0.7391036260098632 0  -2.377117389459098 0.7055370114795929 0  -2.444456186414405 0.6651756898428894 0  -2.50751462732998 0.6184083626909587 0  -2.565685424948549 0.5656854249499272 0  -2.61840836268981 0.5075146273313792 0  -2.665175689841831 0.4444561864159886 0  -2.705537011478692 0.3771173894607835 0  -2.739103626009108 0.3061467458918818 0  -2.76555226858589 0.2322277418031643 0  -2.784628224322724 0.1560722576122001 0  -2.796147781337853 0.07841371226267957 0  0.6720367661319522 0.1312687487860887 0  -4.389489086394485 0.3544472233398538 0  -3.816221554046232 -0.6097988664512611 0  -3.552726516474419 0.9342959806851625 0  -0.2536610443052337 0.8162373554653355 0  -0.1843238977799138 -0.6649951410982842 0  -3.613359951620445 0.1086570650978273 0  -3.146954163409593 -1.074378179335012 0  -0.4255266515582625 0.07734891565364931 0  -0.9413731612925856 1.168014724254929 0  -2.947764053183577 1.200029094390044 0  -0.8319852757411681 -1.058626838707328 0  2.675418990747819 -1.137325591670363e-12 0  -2.602010642259726 -1.287560129290477 0  -2.334401622060699 1.335006108940604 0  -1.524718496628401 1.32890816230333 0  -1.369813829148039 -1.26145150481762 0  -3.294065651892671 -0.4630240940010318 0  -2.072749204569071 -1.388981302138359 0  -0.7546165313921411 0.5601792161340381 0  -3.224879719581335 0.4382689715877901 0  -0.7073137361349826 -0.4625305410752652 0  4.326242945813966 0.3262429458150917 0  -3.187880061217201 0.07437712177460168 0  -2.94792024259867 0.7030255657465158 0  -2.678809277907896 0.9152683582887104 0  -4.911626141576894 -0.5700186648601188 0  -2.980647654587299 -0.5685006168686053 0  -2.769438919323564 -0.8202775213660614 0  -1.936950121013948 1.220669938589229 0  -0.8971643766260747 0.2762459428874499 0  -0.8760878018253068 -0.06836412137772707 0  -1.086827485441145 0.6772548942594016 0  -1.31355927028917 0.8808768148414213 0  -1.034266382739347 -0.5912381576649568 0  -1.241594139118264 -0.836771920085274 0  1.667161185638911 -0.6367996576268693 0  1.778189842800902 0.7191719841256095 0  -3.065106827511819 -0.266795371500425 0  3.714311277362231 -0.7275465302492842 0  -1.728329421201519 -1.09954751473283 0  4.870629493137888 -0.7325040699186681 0  -3.024707894719303 0.2567561910603656 0  -4.375540207252226 1.228935704312058 0  -2.272077148001781 -1.086192861256262 0  3.351408248797803 0.9175227128129597 0  -5.141847419540732 0.8091901960109126 0  0.5769368286199241 1.111816231125821 0  0.7411482978492124 -1.079569101289617 0  -1.074013749991219 0.430231207546053 0  -1.04664573441257 -0.3358382377487088 0  -2.439195336951085 0.9224778883059374 0  -2.902607676587358 0.4360473765597399 0  -1.629450174302152 1.035617385691805 0  -2.146859933125513 1.032375363966426 0  2.587625196444542 -0.9999926061845814 0  -2.529286802957126 -0.8830616815739111 0  -1.493798157676768 -0.8794705728517196 0  -1.932158132383022 -1.026681566564148 0  -4.09956359341904 -0.1372485582942864 0  5.055802064425553 1.050933510837308 0  -4.413659685984891 -1.207626391697488 0  -4.961411026474009 0.1201902955685026 0  -3.771151641156835 -1.303594976371997 0  -3.001321503506133 -0.04919177107285733 0  -3.881733605683001 0.5124517634812003 0  -0.1971627317996802 -1.336445372382849 0  -2.742825060181767 0.6732573903735507 0  2.520439429199979 1.129372838786189 0  -1.026326428668429 0.1384273198437734 0  -2.779290004861729 -0.5844691722665721 0  -2.895095740820851 -0.4261289730972082 0  -1.275682076193407 0.6630703172777138 0  0.1045291701958869 0.3433373435296472 0  5.175560481258801 0.0608563229178163 0  -1.211574424201636 -0.5847362589868093 0  -1.85847006217035 1.007917631940711 0  4.152535916385823 1.131901130662082 0  -1.04878257200685 -0.1253529988863012 0  1.432836501626023 0.05634449574318775 0  3.560672936003603 0.01188897172456759 0  -3.351823698389408 -0.1821329582635926 0  -5.145153363200735 -1.259166339382508 0  0.03473693330309885 -0.1724947236036572 0  -4.377830921337186 -0.6172564090242229 0  -0.3943750728122595 1.410897156959435 0  -1.661073679471639 -0.9342065000197183 0  -1.49086536677686 0.8331714487926741 0  -2.584486130952032 0.7871482690034864 0  4.270535884593893 -1.259607924744415 0  -1.757417028085795 -1.505182186951191 0  -3.430586920998477 1.425579221231371 0  -2.917598827418652 -0.2298465409534677 0  -2.328978331116049 -0.9300959620317677 0  -2.148543000691344 -0.9751580214451921 0  1.002654111360038 -0.4521702885594788 0  -4.628651824080903 -0.1127998710567241 0  -2.948904386702482 0.1555943115410545 0  0.4165242577134774 -0.5629432649478633 0  -3.698137692471105 -0.3173027948676715 0  -3.491400684461791 -0.7926319721650269 0  -0.3844454817728994 0.4680628696134375 0  -3.207830713508533 0.9778749990559993 0  3.229909751065535 -1.326302454776001 0  5.330007715336748 -1.312905173261894 0  -2.649214054100534 -0.713314536278899 0  1.342022964818772 -1.328315248672686 0  -2.556460939068198 1.202372762828344 0  -0.3497819755044588 -0.3080427614060888 0  -4.928440909495523 1.387622767511967 0  1.309170811945155 1.337467055109531 0  -1.352031940181449 -0.7151198948590243 0  -0.6132855723904642 0.9519045895123004 0  4.266838388406324 -0.3707357390867402 0  -3.834389788310238 1.371594798941152 0  -1.187890214580146 0.4851427123079557 0  -1.109118888029193 0.3185947354467283 0  0.1837819401738013 1.234799661476361 0  1.108165254659559 0.6237223548284967 0  -0.5266600156584522 -0.8113991260886402 0  -4.643822083543982 0.7834094684931707 0  -1.146235204666366 -0.4027330721405781 0  2.049029845992713 -0.2664662499985428 0  2.002665761665898 -1.328912351029848 0  -1.678783505586872 0.8978832065736417 0  -2.049499525232052 0.9483890761590005 0  -2.229972236535132 0.9181006323151361 0  -3.033763529945482 -1.54240494280775 0  -3.562344364746847 0.5622550957224539 0  -5.524396842903405 -0.2709714867672603 0  -0.9710982764034376 -1.549038578476423 0  3.058819320130555 -0.5375106252795963 0  -4.170365230099585 0.7342553699229977 0  -1.045878746461381 -8.187420622554697e-05 0  -1.864822945411764 -0.9219031104673102 0  -0.6251005091687033 -0.2120650512195049 0  2.317562622406059 0.4886417799113238 0  -0.6674371191466613 0.1483993095055008 0  -2.705757882979874 1.609712312948224 0  
[...]
<PointData  Scalars="f_24"> 
<DataArray  type="Float64"  Name="f_24"  format="ascii">9.9999997351317094e-01  9.9999997351317094e-01  9.9999997351317094e-01  9.9999997351317094e-01  4.3916006788559564e-01  8.5075107577077036e-01  9.8401442742576806e-01  9.6839082201891258e-01  9.5256756152328481e-01  9.3807640897284617e-01  9.2358917581073596e-01  9.0354351325241000e-01  8.7210726196400845e-01  8.1227357104994835e-01  7.6872921324184973e-01  8.6655309239707279e-01  1.0212495962367432e+00  1.1179791806796657e+00  1.1582892793322082e+00  1.1605127463032803e+00  1.1491429201654506e+00  1.1333410951641072e+00  1.1168313407633517e+00  1.0995711802830621e+00  1.0837357962348000e+00  1.0660214573181765e+00  1.0503736556680570e+00  1.0326281867140410e+00  1.0171118764138531e+00  9.9999997351317094e-01  9.9999997351317094e-01  9.9999997351317094e-01  9.9999997351317094e-01  9.9999997351317094e-01  9.9999997351317094e-01  9.9999997351317094e-01  1.0168777210448903e+00  1.0328096282431452e+00  1.0504266040467598e+00  1.0657872205437291e+00  1.0834437510339945e+00  1.1005846175536058e+00  1.1162118398398519e+00  1.1333677081701903e+00  1.1494437806416562e+00  1.1606526572913756e+00  1.1591032589366499e+00  1.1205689640397563e+00  1.0253933821245806e+00  8.5646715769105752e-01  7.9369505197966195e-01  8.1506406058134284e-01  8.6823431826215858e-01  9.0194130717332854e-01  9.2238834642236522e-01  9.3677130515067053e-01  9.5234875734278890e-01  9.6788709207991752e-01  9.8369697538175294e-01  9.9999997351317094e-01  9.9999997351317094e-01  9.9999997351317094e-01  9.9999997351317094e-01  9.9999997351317094e-01  9.9999997351317094e-01  9.9999997351317094e-01  4.4186957360523271e-01  4.5073511459334265e-01  4.4715006654972095e-01  4.6354918792000299e-01  4.6128932431898034e-01  4.9895109875835686e-01  4.8791225576354069e-01  5.3726186367198847e-01  5.2313367035988878e-01  5.7914762043458312e-01  5.8732013072246769e-01  6.4743217679185627e-01  6.7298171240764715e-01  7.1328819169427182e-01  7.3094097140360359e-01  7.3627269282071584e-01  7.2014038276943249e-01  6.8173630916316508e-01  6.3788162580714014e-01  6.0122511668471834e-01  5.8760264158471354e-01  5.9349705180328638e-01  6.1944007897053299e-01  6.5345600151801353e-01  6.9264268358789916e-01  7.3094527854138935e-01  7.6580745813899398e-01  7.9604361801608592e-01  8.1921837208146531e-01  8.3647937802029770e-01  8.4752016870118263e-01  8.4738249465399162e-01  8.3680990290006629e-01  8.2000321254298181e-01  7.9592876513167043e-01  7.6633862659958563e-01  7.3114491620332411e-01  6.9255162462201014e-01  6.5341183419293358e-01  6.1843467694544041e-01  5.9309382542747469e-01  5.8754449747328263e-01  6.0310831453933256e-01  6.4003932985892098e-01  6.8609020541581034e-01  7.2366131792685573e-01  7.4149459027237152e-01  7.3889184502208249e-01  7.1011400087339882e-01  6.8906293023346343e-01  6.4571293075769487e-01  5.9045038371364578e-01  5.3789811982709312e-01  5.5575554975527863e-01  4.8860248179033439e-01  5.0566516317797194e-01  4.8633645400967646e-01  4.7110411261965329e-01  4.5452106921953633e-01  4.6340560761304328e-01  4.4443474248824999e-01  4.4388501335480252e-01  1.1536523407174484e+00  9.4254331969559046e-01  9.2060560720398521e-01  9.1868501221789256e-01  1.0240462948092370e+00  1.0395679958109525e+00  8.9468417964642155e-01  9.1224235193160164e-01  9.9535350473302397e-01  7.3644170185857660e-01  9.0580977679763464e-01  8.0067508119147945e-01  1.1101273495774218e+00  8.7567851013333797e-01  8.2994730359649893e-01  5.9093854488875086e-01  5.5764840731744281e-01  8.7124797493005512e-01  7.8294924943101962e-01  8.8210854578818632e-01  8.5535451615210434e-01  9.0511877865031454e-01  1.0556271278838865e+00  8.1239658863213682e-01  8.4559728254091737e-01  8.3013717592705094e-01  9.6294588903451250e-01  8.1603096838772493e-01  8.2503858021533683e-01  6.8252898108878635e-01  8.7076026141526575e-01  8.9027722775100215e-01  7.3304335301370238e-01  5.5724821827425342e-01  7.7573564173618648e-01  6.0583620753776368e-01  1.1425894934896101e+00  1.1389754974507267e+00  7.7765331234142221e-01  1.0759262683639206e+00  5.7483570183417765e-01  1.0375724998286928e+00  7.5625936241295166e-01  9.4754782121674197e-01  7.4820083737843279e-01  1.0880374092989904e+00  9.7116257376195203e-01  1.1516386519604958e+00  1.1556870577594283e+00  8.0093231766092876e-01  8.2682193914781821e-01  7.3868694232984300e-01  7.4049125801241233e-01  5.4316615779732724e-01  7.0912727596014269e-01  1.1132479211583033e+00  7.5786606057039885e-01  5.3540410137679362e-01  6.5175667053312225e-01  9.2838238192766975e-01  1.0313932704177933e+00  9.4919301743446716e-01  9.6388678281643780e-01  9.3196822316166761e-01  7.1265399130867935e-01  9.2172844281941169e-01  1.0556560496666412e+00  7.5769784504955262e-01  1.1155745840910121e+00  8.5819436773710411e-01  7.2812899046424906e-01  7.2753515566727134e-01  6.6781307097541542e-01  1.0961892850803654e+00  1.0274135075934088e+00  7.1648598312631240e-01  6.3244427673488279e-01  1.0612953423957165e+00  8.5593457180333721e-01  1.1492979583765184e+00  1.0809899356685757e+00  8.5940751672415228e-01  9.7234033588479407e-01  1.0860892082282163e+00  9.4392021156987116e-01  1.0112900101502953e+00  5.6332346002600409e-01  5.5170000158298471e-01  7.3334367749583662e-01  1.0575092847747762e+00  7.0716828466509052e-01  9.2272750179706930e-01  6.7228821413051654e-01  7.1345058064594458e-01  6.9610087373401897e-01  1.1578637565928906e+00  9.5147507290897870e-01  6.7978703214916225e-01  1.1334289848597630e+00  9.0585886805495008e-01  9.1157928415797074e-01  9.9587851417147888e-01  9.0849694688896521e-01  1.0921359197821563e+00  1.0223636355804222e+00  7.2582251208293902e-01  1.1517741382415263e+00  8.5867012347369176e-01  1.0083663989758607e+00  9.6528626839995635e-01  1.1532304310049477e+00  6.2316727026012475e-01  9.1238627897005276e-01  1.0575922066454155e+00  9.3291356822040217e-01  7.5565637956576159e-01  8.1750153623873556e-01  1.1173030886153379e+00  1.1555076198822440e+00  9.4687625826737887e-01  9.5407004624896485e-01  7.8927619985512087e-01  1.1303417712169128e+00  1.1325756018474624e+00  5.7988136568638249e-01  6.8696617027934492e-01  6.8931458295291503e-01  9.0908491265707447e-01  9.0437839825945843e-01  9.8389010567836288e-01  8.1296116130959506e-01  1.0975871798053571e+00  9.3697474726648056e-01  8.6190557751182018e-01  6.4998131927867264e-01  9.4420558088754591e-01  1.1218947318279080e+00  9.3549450237483600e-01  8.8637209798896277e-01  1.1346488832676576e+00  7.2150102948923789e-01  6.5730968381749388e-01  8.9590471791011927e-01  8.8848799602491735e-01  9.8573216700198152e-01  1.1040797329861147e+00  7.7116853640934047e-01  8.8754136210938406e-01  7.9267488511634665e-01  9.1945177709028458e-01  6.0321617264252658e-01  9.1388939508788614e-01  6.4557006455914911e-01  8.0316180471114929e-01  8.3381569045553561e-01  1.1076022339231659e+00  1.0218772920223125e+00  8.8286923281736807e-01  1.0973165369161368e+00  8.5165260656284159e-01  9.8278202508077839e-01  8.0574064301877224e-01  1.1421655795536829e+00  1.0782632876498961e+00  8.6542632991995194e-01  8.8764929973872997e-01  6.6857464375525621e-01  8.9668688000671204e-01  1.0205042751434976e+00  6.7089488409925679e-01  6.6870606990687764e-01  5.5287036143985790e-01  8.1122948511041471e-01  1.1030258395930410e+00  8.6263967665367225e-01  7.3884632164097808e-01  9.7833321627132908e-01  5.7623438217912049e-01  6.0539839160976805e-01  6.2355434366866158e-01  6.1139284899399093e-01  1.0189302800937587e+00  9.2896750317178223e-01  1.0702412454122656e+00  6.7774992406663059e-01  6.8614871954120060e-01  9.5655401520177297e-01  1.0446774985928851e+00  6.6980839016576654e-01  6.5428453779791640e-01  6.6957238175794620e-01  6.1197844419907199e-01  5.9684447205989033e-01  6.7171923898891839e-01  1.0752909523836010e+00  1.0399041810347094e+00  9.3669244565250398e-01  9.0167786241470427e-01  8.3804698221139662e-01  9.2250290449102312e-01  5.1219296641837453e-01  8.9062043349234998e-01  6.3254219819031532e-01  5.7681440676350959e-01  8.3283234901563896e-01  9.2258011809240992e-01  7.9903730675418361e-01  1.0399134333307236e+00  7.1315924092802752e-01  7.8462932864181778e-01  1.1604101995402238e+00  1.1075668256515121e+00  9.5973916007305649e-01  7.5113053888325809e-01  7.6258284524079090e-01  8.4649933478231876e-01  1.1530750379542962e+00  7.0825213861365766e-01  6.8393515446443542e-01  6.6402050683441083e-01  1.1279899547962360e+00  8.9265050333587359e-01  6.8214715969298867e-01  5.8830677671110276e-01  5.9893200738767938e-01  9.4261866353246371e-01  9.4246348491138054e-01  1.1551182164941296e+00  6.2945018554530752e-01  8.5040334109228521e-01  6.0738842511793401e-01  8.9978276408055358e-01  8.4560279804493377e-01  8.0853725912285657e-01  9.5911759884670977e-01  1.1603833682743745e+00  6.3948244761824091e-01  1.1394135410436717e+00  5.7652520432790566e-01  1.1358807507523756e+00  7.3138733163788938e-01  8.4584907735788373e-01  9.5423020764978517e-01  1.0419555583479367e+00  6.2308682241442614e-01  9.0820652647407984e-01  6.7196014713041419e-01  9.8543940054945234e-01  1.1128202324117806e+00  6.0966999075860928e-01  7.1237421870372630e-01  6.2425275467151231e-01  9.8727163517206284e-01  9.7457869450012646e-01  8.0410022059319108e-01  1.0318175043396691e+00  6.8131990668683096e-01  8.4980525098325310e-01  5.8069589780991548e-01  9.3498261597694565e-01  6.5731589222246067e-01  6.8394297272677118e-01  9.3105292303436760e-01  6.6371347898450006e-01  5.8078653487083376e-01  6.5829874612878414e-01  4.9901406050903041e-01  8.2335436635186332e-01  5.9597475260537758e-01  1.0419368978668087e+00  6.7001806178255074e-01  5.1683104421015436e-01  6.0363923305222267e-01  8.6752084681445396e-01  8.1289714718302120e-01  9.2659209040578616e-01  7.4427790855665932e-01  1.0661124226730092e+00  1.0473630793855597e+00  7.9948809581578240e-01  6.5936916805205925e-01  8.8290729404064361e-01  6.5091879326014512e-01  8.5977214997992035e-01  8.8952214977700694e-01  8.1175271947963179e-01  8.4190312767209208e-01  7.3997941518153054e-01  1.1211117206877816e+00  9.3106927163169240e-01  8.4330263956942764e-01  1.0532642428192407e+00  9.2954888192799900e-01  9.1644335217110529e-01  8.4161277853514604e-01  7.9386792498282344e-01  1.0582863355618080e+00  9.4106592469812822e-01  7.2130287560441109e-01  1.0139690774007526e+00  9.6574273798003651e-01  8.5242669178110508e-01  9.7577506816013326e-01  1.1580675551126849e+00  8.2234840368471140e-01  8.5261040743780447e-01  7.2588674257161045e-01  1.0586595813757567e+00  7.3535095942091100e-01  8.1321776864374284e-01  9.2145238360439219e-01  1.0124670147959287e+00  6.4850424917887084e-01  7.6575619274549478e-01  1.1281857039999226e+00  8.5980690667912285e-01  9.2970098167381310e-01  1.1055187670699047e+00  6.0011882605871858e-01  1.0147710808582662e+00  1.1504351075816970e+00  6.4196115313557134e-01  6.3229443775224348e-01  9.5414821853010590e-01  7.0512357515986968e-01  7.2994550411168013e-01  5.6693646444989310e-01  6.3315200815056660e-01  1.1433254117018177e+00  1.0965701630554476e+00  1.0846768078667854e+00  1.1029244665974818e+00  9.5854644061716610e-01  1.0866433835652201e+00  8.9996904993508098e-01  9.1025471249547152e-01  9.5508275334599180e-01  9.2013935122323420e-01  9.9301565427743055e-01  9.8104005662564542e-01  8.8454846946263110e-01  1.0925492063313342e+00  1.1490839890856834e+00  8.8757702976109520e-01  1.1566162412728531e+00  9.5333723731766928e-01  1.1478385953104824e+00  1.1249123850052505e+00  9.7744896969233053e-01  8.6220469806140276e-01  9.6950342646101773e-01  1.0414475752085230e+00  7.8851455162145290e-01  1.0993634826245469e+00  1.1186471476383888e+00  7.4960785303040078e-01  1.1536686315411098e+00  5.5572595312601614e-01  9.3412621986656008e-01  1.0374442574027969e+00  6.0670937847871287e-01  9.4464056512723638e-01  1.0133654951396820e+00  1.0584087427374869e+00  1.1225035551462272e+00  1.1426241213670276e+00  9.4924375203553535e-01  1.0316872809124329e+00  1.1452039811401471e+00  6.8041486080859392e-01  5.4082432406084113e-01  1.1085453589168726e+00  9.1795215979483102e-01  8.9547229123209482e-01  1.0694722723292847e+00  8.1789152518352359e-01  8.7606556841840422e-01  7.6061968190622453e-01  8.3850570067266761e-01  9.0591657534406300e-01  9.7162736565071639e-01  6.7163945861134611e-01  9.3463435833778763e-01  9.4594207862645485e-01  6.7627520005231745e-01  9.6064515251296823e-01  1.0435821782859260e+00  6.6706241846672287e-01  1.0714859223606106e+00  9.1899546342475635e-01  8.8731784463025432e-01  6.9866055415184936e-01  8.8850823025035874e-01  9.3786840812360694e-01  1.0435890596958257e+00  7.6895681088143741e-01  7.7552183198584324e-01  6.0489805392881302e-01  8.1041039846777685e-01  7.0631595090683519e-01  1.1346991113733988e+00  8.7477101629424336e-01  7.5034424308394054e-01  7.3267633090397344e-01  5.9452167143010459e-01  9.4545194497631591e-01  1.0758776100443939e+00  8.7262864570990106e-01  5.9289750112912687e-01  7.8252965294969978e-01  9.4008685625110100e-01  9.2718030870432011e-01  8.0929526752770764e-01  1.0118309045924865e+00  9.8876069565975910e-01  9.7332524548437538e-01  1.0918284930545417e+00  1.1553494733260943e+00  1.1422483518378530e+00  1.0260866523405754e+00  9.8864968699735922e-01  1.1030382706996029e+00  1.1433653516067241e+00  9.1508219328001028e-01  1.1550546513533984e+00  9.0247855618624961e-01  9.5460048787760821e-01  8.8598936954592133e-01  6.7334045479986437e-01  1.0919648801859940e+00  7.0759096116289233e-01  6.6784888742467130e-01  9.4051567202092545e-01  1.0291527867496464e+00  9.1294910488599512e-01  1.1572834057336494e+00  1.1528600549511638e+00  9.1926067755181740e-01  1.1570570096335280e+00  1.1138489961186371e+00  1.0725094214882105e+00  7.9689032787272140e-01  1.0856064054211729e+00  9.8675332051628351e-01  5.2028670935976173e-01  1.1350969802391813e+00  7.7039153114041548e-01  1.0617579489006137e+00  1.0097401311393033e+00  7.9103319469997591e-01  7.5788164816259429e-01  8.4095126575222778e-01  9.2094612544744026e-01  1.0559808984479548e+00  6.1946988586404550e-01  1.1504497906193099e+00  8.8078831379865230e-01  9.6210959276172459e-01  5.5457036668634452e-01  9.4694062049487404e-01  5.7055888225335549e-01  5.6186432088328919e-01  9.6305080984566871e-01  1.0924709946587927e+00  1.0793302620263099e+00  8.7053213504379268e-01  1.0104698276884510e+00  1.0653589443826805e+00  1.1420027372116119e+00  8.5910547224758393e-01  6.4700078049851406e-01  9.0862656792898322e-01  9.0363791594274312e-01  6.3201738190132317e-01  6.8224430558294391e-01  1.0541064432493157e+00  6.8837292728150978e-01  9.9086339401836288e-01  9.3978456971080782e-01  7.7481589208788582e-01  9.1431368204069841e-01  9.7036967461355206e-01  7.6979526484206662e-01  7.0296489733441192e-01  9.8949941472565184e-01  1.0534169096270676e+00  1.1212519312306950e+00  8.9333283343618308e-01  9.2515694176611907e-01  8.5288452325100828e-01  9.7440003548501486e-01  8.2204809237283205e-01  7.3252865652330335e-01  9.6766463986410489e-01  </DataArray> 
</PointData> 
</Piece>
</UnstructuredGrid>
</VTKFile>