<?xml version="1.0"?>
<VTKFile type="UnstructuredGrid"  version="0.1"  >
<UnstructuredGrid>
<Piece  NumberOfPoints="622" NumberOfCells="1116">
<Points>
<DataArray  type="Float64"  NumberOfComponents="3"  format="ascii">-6 -2 0  -6 2 0  6 2 0  6 -2 0  -2.8 0 0  -1.2 0 0  -5.500000000001853 -2 0  -5.000000000003705 -2 0  -4.500000000005556 -2 0  -4.000000000007409 -2 0  -3.50000000000926 -2 0  -3.000000000011112 -2 0  -2.500000000012963 -2 0  -2.000000000014814 -2 0  -1.500000000016665 -2 0  -1.000000000018516 -2 0  -0.5000000000203677 -2 0  -2.204547655537681e-11 -2 0  0.4999999999796305 -2 0  0.9999999999814779 -2 0  1.499999999983327 -2 0  1.999999999985175 -2 0  2.499999999987029 -2 0  2.999999999988882 -2 0  3.499999999990735 -2 0  3.999999999992589 -2 0  4.49999999999444 -2 0  4.999999999996293 -2 0  5.499999999998147 -2 0  6 -1.500000000001387 0  6 -1.000000000002774 0  6 -0.5000000000041616 0  6 -5.505595979116151e-12 0  6 0.4999999999958384 0  6 0.9999999999972258 0  6 1.499999999998613 0  5.500000000001853 2 0  5.000000000003705 2 0  4.500000000005556 2 0  4.000000000007409 2 0  3.50000000000926 2 0  3.000000000011112 2 0  2.500000000012963 2 0  2.000000000014814 2 0  1.500000000016665 2 0  1.000000000018516 2 0  0.5000000000203677 2 0  2.204547655537681e-11 2 0  -0.4999999999796305 2 0  -0.9999999999814779 2 0  -1.499999999983327 2 0  -1.999999999985175 2 0  -2.499999999987029 2 0  -2.999999999988882 2 0  -3.499999999990735 2 0  -3.999999999992589 2 0  -4.49999999999444 2 0  -4.999999999996293 2 0  -5.499999999998147 2 0  -6 1.500000000001387 0  -6 1.000000000002774 0  -6 0.5000000000041616 0  -6 5.505595979116151e-12 0  -6 -0.4999999999958384 0  -6 -0.9999999999972258 0  -6 -1.499999999998613 0  -2.796147781337886 -0.07841371226233997 0  -2.784628224322852 -0.1560722576115546 0  -2.765552268586196 -0.2322277418021561 0  -2.739103626009626 -0.30614674589063 0  -2.705537011479457 -0.3771173894593519 0  -2.665175689843037 -0.4444561864141836 0  -2.618408362691456 -0.5075146273293722 0  -2.565685424950688 -0.5656854249477874 0  -2.507514627332613 -0.6184083626887972 0  -2.444456186417533 -0.6651756898407991 0  -2.377117389462776 -0.7055370114776264 0  -2.306146745894456 -0.7391036260080417 0  -2.232227741806235 -0.7655522685849585 0  -2.15607225761588 -0.784628224321992 0  -2.078413712266957 -0.7961477813374315 0  -2.000000000003407 -0.7999999999999998 0  -1.921586287739523 -0.7961477813380696 0  -1.843927742389945 -0.7846282243231506 0  -1.767772258198879 -0.7655522685865098 0  -1.693853254109962 -0.7391036260098718 0  -1.622882610540873 -0.7055370114795768 0  -1.555543813585629 -0.6651756898429115 0  -1.49248537267008 -0.6184083626910072 0  -1.434314575051535 -0.5656854249500112 0  -1.381591637310384 -0.5075146273316149 0  -1.334824310158267 -0.4444561864161359 0  -1.294462988521423 -0.3771173894609975 0  -1.260896373990956 -0.3061467458920351 0  -1.234447731414138 -0.2322277418032578 0  -1.215371775677287 -0.156072257612254 0  -1.203852218662147 -0.07841371226267954 0  -1.203852218662115 0.07841371226235888 0  -1.215371775677132 0.156072257611478 0  -1.234447731413795 0.232227741802127 0  -1.260896373990353 0.3061467458905811 0  -1.294462988520456 0.3771173894591898 0  -1.334824310156812 0.444456186413959 0  -1.381591637308413 0.5075146273292139 0  -1.434314575049147 0.5656854249476236 0  -1.492485372667197 0.6184083626886415 0  -1.555543813582104 0.6651756898405565 0  -1.62288261053673 0.7055370114773629 0  -1.693853254105125 0.7391036260078683 0  -1.767772258193396 0.7655522685848468 0  -1.84392774238373 0.7846282243219146 0  -1.921586287732977 0.7961477813374253 0  -1.999999999996558 0.8 0  -2.078413712260516 0.7961477813380661 0  -2.156072257610207 0.7846282243231205 0  -2.232227741801178 0.7655522685864928 0  -2.306146745890059 0.7391036260098632 0  -2.377117389459098 0.7055370114795929 0  -2.444456186414405 0.6651756898428894 0  -2.50751462732998 0.6184083626909587 0  -2.565685424948549 0.5656854249499272 0  -2.61840836268981 0.5075146273313792 0  -2.665175689841831 0.4444561864159886 0  -2.705537011478692 0.3771173894607835 0  -2.739103626009108 0.3061467458918818 0  -2.76555226858589 0.2322277418031643 0  -2.784628224322724 0.1560722576122001 0  -2.796147781337853 0.07841371226267957 0  0.6720367661319522 0.1312687487860887 0  -4.389489086394485 0.3544472233398538 0  -3.816221554046232 -0.6097988664512611 0  -3.552726516474419 0.9342959806851625 0  -0.2536610443052337 0.8162373554653355 0  -0.1843238977799138 -0.6649951410982842 0  -3.613359951620445 0.1086570650978273 0  -3.146954163409593 -1.074378179335012 0  -0.4255266515582625 0.07734891565364931 0  -0.9413731612925856 1.168014724254929 0  -2.947764053183577 1.200029094390044 0  -0.8319852757411681 -1.058626838707328 0  2.675418990747819 -1.137325591670363e-12 0  -2.602010642259726 -1.287560129290477 0  -2.334401622060699 1.335006108940604 0  -1.524718496628401 1.32890816230333 0  -1.369813829148039 -1.26145150481762 0  -3.294065651892671 -0.4630240940010318 0  -2.072749204569071 -1.388981302138359 0  -0.7546165313921411 0.5601792161340381 0  -3.224879719581335 0.4382689715877901 0  -0.7073137361349826 -0.4625305410752652 0  4.326242945813966 0.3262429458150917 0  -3.187880061217201 0.07437712177460168 0  -2.94792024259867 0.7030255657465158 0  -2.678809277907896 0.9152683582887104 0  -4.911626141576894 -0.5700186648601188 0  -2.980647654587299 -0.5685006168686053 0  -2.769438919323564 -0.8202775213660614 0  -1.936950121013948 1.220669938589229 0  -0.8971643766260747 0.2762459428874499 0  -0.8760878018253068 -0.06836412137772707 0  -1.086827485441145 0.6772548942594016 0  -1.31355927028917 0.8808768148414213 0  -1.034266382739347 -0.5912381576649568 0  -1.241594139118264 -0.836771920085274 0  1.667161185638911 -0.6367996576268693 0  1.778189842800902 0.7191719841256095 0  -3.065106827511819 -0.266795371500425 0  3.714311277362231 -0.7275465302492842 0  -1.728329421201519 -1.09954751473283 0  4.870629493137888 -0.7325040699186681 0  -3.024707894719303 0.2567561910603656 0  -4.375540207252226 1.228935704312058 0  -2.272077148001781 -1.086192861256262 0  3.351408248797803 0.9175227128129597 0  -5.141847419540732 0.8091901960109126 0  0.5769368286199241 1.111816231125821 0  0.7411482978492124 -1.079569101289617 0  -1.074013749991219 0.430231207546053 0  -1.04664573441257 -0.3358382377487088 0  -2.439195336951085 0.9224778883059374 0  -2.902607676587358 0.4360473765597399 0  -1.629450174302152 1.035617385691805 0  -2.146859933125513 1.032375363966426 0  2.587625196444542 -0.9999926061845814 0  -2.529286802957126 -0.8830616815739111 0  -1.493798157676768 -0.8794705728517196 0  -1.932158132383022 -1.026681566564148 0  -4.09956359341904 -0.1372485582942864 0  5.055802064425553 1.050933510837308 0  -4.413659685984891 -1.207626391697488 0  -4.961411026474009 0.1201902955685026 0  -3.771151641156835 -1.303594976371997 0  -3.001321503506133 -0.04919177107285733 0  -3.881733605683001 0.5124517634812003 0  -0.1971627317996802 -1.336445372382849 0  -2.742825060181767 0.6732573903735507 0  2.520439429199979 1.129372838786189 0  -1.026326428668429 0.1384273198437734 0  -2.779290004861729 -0.5844691722665721 0  -2.895095740820851 -0.4261289730972082 0  -1.275682076193407 0.6630703172777138 0  0.1045291701958869 0.3433373435296472 0  5.175560481258801 0.0608563229178163 0  -1.211574424201636 -0.5847362589868093 0  -1.85847006217035 1.007917631940711 0  4.152535916385823 1.131901130662082 0  -1.04878257200685 -0.1253529988863012 0  1.432836501626023 0.05634449574318775 0  3.560672936003603 0.01188897172456759 0  -3.351823698389408 -0.1821329582635926 0  -5.145153363200735 -1.259166339382508 0  0.03473693330309885 -0.1724947236036572 0  -4.377830921337186 -0.6172564090242229 0  -0.3943750728122595 1.410897156959435 0  -1.661073679471639 -0.9342065000197183 0  -1.49086536677686 0.8331714487926741 0  -2.584486130952032 0.7871482690034864 0  4.270535884593893 -1.259607924744415 0  -1.757417028085795 -1.505182186951191 0  -3.430586920998477 1.425579221231371 0  -2.917598827418652 -0.2298465409534677 0  -2.328978331116049 -0.9300959620317677 0  -2.148543000691344 -0.9751580214451921 0  1.002654111360038 -0.4521702885594788 0  -4.628651824080903 -0.1127998710567241 0  -2.948904386702482 0.1555943115410545 0  0.4165242577134774 -0.5629432649478633 0  -3.698137692471105 -0.3173027948676715 0  -3.491400684461791 -0.7926319721650269 0  -0.3844454817728994 0.4680628696134375 0  -3.207830713508533 0.9778749990559993 0  3.229909751065535 -1.326302454776001 0  5.330007715336748 -1.312905173261894 0  -2.649214054100534 -0.713314536278899 0  1.342022964818772 -1.328315248672686 0  -2.556460939068198 1.202372762828344 0  -0.3497819755044588 -0.3080427614060888 0  -4.928440909495523 1.387622767511967 0  1.309170811945155 1.337467055109531 0  -1.352031940181449 -0.7151198948590243 0  -0.6132855723904642 0.9519045895123004 0  4.266838388406324 -0.3707357390867402 0  -3.834389788310238 1.371594798941152 0  -1.187890214580146 0.4851427123079557 0  -1.109118888029193 0.3185947354467283 0  0.1837819401738013 1.234799661476361 0  1.108165254659559 0.6237223548284967 0  -0.5266600156584522 -0.8113991260886402 0  -4.643822083543982 0.7834094684931707 0  -1.146235204666366 -0.4027330721405781 0  2.049029845992713 -0.2664662499985428 0  2.002665761665898 -1.328912351029848 0  -1.678783505586872 0.8978832065736417 0  -2.049499525232052 0.9483890761590005 0  -2.229972236535132 0.9181006323151361 0  -3.033763529945482 -1.54240494280775 0  -3.562344364746847 0.5622550957224539 0  -5.524396842903405 -0.2709714867672603 0  -0.9710982764034376 -1.549038578476423 0  3.058819320130555 -0.5375106252795963 0  -4.170365230099585 0.7342553699229977 0  -1.045878746461381 -8.187420622554697e-05 0  -1.864822945411764 -0.9219031104673102 0  -0.6251005091687033 -0.2120650512195049 0  2.317562622406059 0.4886417799113238 0  -0.6674371191466613 0.1483993095055008 0  -2.705757882979874 1.609712312948224 0  
[...]
<PointData  Scalars="f_24"> 
<DataArray  type="Float64"  Name="f_24"  format="ascii">9.9999997397801221e-01  9.9999997397801221e-01  9.9999997397801221e-01  9.9999997397801221e-01  4.3837351971149241e-01  8.5337768098264322e-01  9.8373213663169856e-01  9.6800340090194026e-01  9.5238377488065595e-01  9.3876512182374838e-01  9.2681604188487754e-01  9.1429576239769283e-01  8.9434037219634321e-01  8.4628881401529998e-01  7.9422322253238165e-01  8.6343451662350401e-01  1.0033635286149476e+00  1.1053968665469278e+00  1.1532159101257102e+00  1.1615166331110602e+00  1.1526142280161773e+00  1.1369404026746057e+00  1.1200075752932033e+00  1.1021825748249263e+00  1.0858960263824180e+00  1.0676976401573930e+00  1.0516351817506415e+00  1.0334239323853140e+00  1.0175246296272342e+00  9.9999997397801221e-01  9.9999997397801221e-01  9.9999997397801221e-01  9.9999997397801221e-01  9.9999997397801221e-01  9.9999997397801221e-01  9.9999997397801221e-01  1.0173214520807252e+00  1.0336199968925470e+00  1.0516735995585320e+00  1.0674208637403559e+00  1.0856087333790858e+00  1.1031891515210366e+00  1.1192294871226081e+00  1.1369824587121735e+00  1.1526769856701855e+00  1.1617717721133509e+00  1.1535225187512039e+00  1.1074784408724141e+00  1.0078438468971709e+00  8.5471514294560791e-01  8.1956576293587113e-01  8.5055170864999430e-01  8.9468743875342427e-01  9.1418223363705564e-01  9.2643837048222910e-01  9.3790603406635975e-01  9.5243943271405307e-01  9.6760287556959279e-01  9.8344085780848256e-01  9.9999997397801221e-01  9.9999997397801221e-01  9.9999997397801221e-01  9.9999997397801221e-01  9.9999997397801221e-01  9.9999997397801221e-01  9.9999997397801221e-01  4.4129198415600224e-01  4.5061848987107900e-01  4.4768525526933234e-01  4.6452845855115715e-01  4.6330739917057595e-01  5.0416849196846225e-01  4.9665295088109640e-01  5.5400076416983335e-01  5.4544456777985628e-01  6.1071406545266660e-01  6.2601096621037544e-01  6.9395577141713449e-01  7.2584884263979310e-01  7.7138079900587153e-01  7.9266007187289522e-01  8.0108009808498126e-01  7.8886524769553157e-01  7.5487428379857924e-01  7.1331767343217078e-01  6.7533889324330254e-01  6.5505809613298216e-01  6.5118676642706508e-01  6.6600703699149044e-01  6.8958762591919698e-01  7.1995327187665958e-01  7.5079089199888249e-01  7.8000174336105832e-01  8.0570034313489458e-01  8.2574814203507874e-01  8.4077663391282853e-01  8.5046098978856322e-01  8.5054987584103181e-01  8.4147684571497994e-01  8.2702023757536891e-01  8.0646625376431613e-01  7.8135750749786648e-01  7.5221341194781510e-01  7.2107159303007040e-01  6.9106107556987884e-01  6.6675973601128447e-01  6.5298530300969904e-01  6.5766353814772316e-01  6.8062066937527299e-01  7.1972343776659675e-01  7.6425478687868653e-01  7.9797542670884714e-01  8.1178794065850590e-01  8.0535394631928614e-01  7.7218163528934114e-01  7.4609781092583027e-01  6.9591013798343315e-01  6.3200036523569514e-01  5.6947183072649232e-01  5.8101521813553225e-01  5.0266938995448918e-01  5.1499559570281817e-01  4.8924338484618801e-01  4.7149816765646507e-01  4.5429313770875152e-01  4.6309067380384500e-01  4.4399309584662761e-01  4.4315296235966772e-01  1.1352069553330402e+00  9.4007867526142275e-01  9.1723175923290245e-01  9.1695347349910516e-01  1.0171966567546460e+00  1.0278605034367190e+00  8.8916289822954264e-01  9.1444860341027190e-01  9.8203532903505109e-01  7.2315896200525009e-01  9.1351452239939213e-01  7.8639877101381161e-01  1.1124603361050207e+00  8.9828510826163555e-01  8.7051619833623040e-01  6.4027923817682508e-01  5.9765567957657129e-01  8.6759960988867058e-01  8.2971468045241392e-01  8.8068469377457204e-01  8.5185274276414147e-01  9.0095107797640350e-01  1.0569718680436302e+00  8.0601970238750298e-01  8.5238935849844921e-01  8.5421320467739048e-01  9.6164334402341412e-01  8.2036553338482732e-01  8.4337866548042784e-01  7.4510024230714422e-01  8.7100866961292145e-01  8.8797289375737665e-01  7.4621493647328652e-01  6.0267853236119595e-01  7.8400003466681267e-01  6.3636594480457054e-01  1.1442403816235460e+00  1.1410893141499046e+00  7.7392793509351154e-01  1.0777592025937517e+00  6.5228202086206111e-01  1.0385047075575511e+00  7.5266183516963003e-01  9.4678479673947769e-01  7.9511290643602006e-01  1.0901660883954807e+00  9.7034068156950304e-01  1.1354248214695917e+00  1.1444368823946314e+00  8.0986415883557183e-01  8.3187018650183275e-01  7.7982112041649509e-01  7.4429849279413152e-01  6.2489992569904174e-01  7.6868609285811140e-01  1.1160010469004102e+00  7.9145921114878259e-01  6.0623915833599118e-01  7.1903331918381708e-01  9.2480355656794000e-01  1.0321767751153632e+00  9.4824059364454960e-01  9.6248668789994263e-01  9.3162124356030118e-01  7.0739350278650037e-01  9.1821120176998428e-01  1.0424251851339688e+00  7.7647200653543780e-01  1.1183326946163015e+00  8.5998936773891232e-01  7.4187390889611426e-01  7.3154113507284957e-01  6.9749894468550211e-01  1.0760149879503642e+00  1.0280808565907007e+00  7.3641245671097588e-01  7.0887177613693586e-01  1.0628033659111056e+00  8.5773222206427691e-01  1.1496746200233399e+00  1.0828994909504075e+00  8.5348126051861783e-01  9.7176639004983489e-01  1.0652100580179460e+00  9.4174142590521881e-01  9.9874676680932362e-01  6.4372592395066786e-01  6.1944289907924788e-01  7.6391499836805643e-01  1.0589381180744681e+00  7.5444275524496385e-01  9.2506563108792017e-01  6.7036468454355691e-01  7.5920757950619833e-01  7.5400044922524301e-01  1.1491316232920743e+00  9.4939805877803618e-01  6.7594657120260238e-01  1.1136813211819545e+00  9.0119384264948299e-01  9.0914511789825614e-01  9.8535441106641197e-01  9.0938993200248353e-01  1.0944779190348584e+00  1.0229090460205075e+00  7.4956884543359881e-01  1.1536658464216278e+00  8.8649563583243896e-01  9.9477521971748339e-01  9.6480718025595924e-01  1.1547462893230627e+00  6.6259776723927655e-01  9.0683894492121819e-01  1.0589890223882337e+00  9.3316313382549554e-01  7.7147502311006100e-01  8.2469940399665909e-01  1.1004134588146630e+00  1.1505719401318641e+00  9.4207087862892580e-01  9.5266397942079095e-01  7.9937341037565379e-01  1.1327735668005630e+00  1.1357768149411567e+00  6.6242525132402996e-01  7.5474234420910202e-01  7.4633209592064798e-01  9.1717577935782046e-01  9.0046243144374472e-01  9.8333855435679007e-01  8.0292202850133343e-01  1.0998286955747105e+00  9.3474239093867995e-01  8.6310714815186462e-01  7.2247953897860717e-01  9.3608448800439037e-01  1.1245097087026843e+00  9.2840433897493557e-01  9.0594093612417270e-01  1.1378767483032506e+00  7.3235635024329082e-01  6.5780418568216514e-01  8.9279689351529334e-01  8.8811768478803033e-01  9.8538921194827767e-01  1.0885100715136800e+00  7.7639021379948447e-01  8.8677968103100280e-01  8.3159479963354610e-01  9.1526924445991653e-01  6.4932331044798886e-01  9.0955031862483782e-01  6.5399338749864000e-01  8.0043995829001469e-01  8.3835335141679601e-01  1.0904961821809895e+00  1.0224025445881102e+00  8.8782560943334454e-01  1.0998099892595856e+00  8.4819626582855090e-01  9.8221595971515130e-01  7.9965479600783396e-01  1.1281427728277760e+00  1.0802066085960089e+00  8.5955222660586283e-01  8.9656536239239015e-01  6.7410910597189888e-01  9.0728034113001910e-01  1.0210090095922328e+00  7.0861636375853732e-01  6.9365463337289912e-01  5.8276483696656889e-01  8.1055128122329212e-01  1.1053679747903784e+00  8.9065818777937944e-01  7.4079375766552147e-01  9.7773056939546688e-01  6.4962714898443374e-01  6.0256322569538456e-01  6.2451638017908884e-01  6.1633258564761073e-01  1.0193956488402995e+00  9.2679435480503336e-01  1.0719436148099919e+00  7.3098185759280787e-01  7.4902102541917170e-01  9.5491763032465971e-01  1.0457784538057218e+00  7.1120076430394430e-01  6.7251223843695906e-01  6.9874096761114979e-01  6.0809545018614952e-01  6.4896606163287240e-01  7.0237081862539497e-01  1.0771996789772600e+00  1.0408909333554233e+00  9.3502979525991381e-01  8.9771675680245555e-01  8.3884931650782824e-01  9.2441123577618056e-01  5.8739947822799965e-01  8.8843013801488213e-01  7.1331662824516617e-01  6.5297937775316517e-01  8.3804534200646641e-01  9.1113769084179441e-01  8.3572359877563107e-01  1.0408819581927731e+00  7.3701247730798958e-01  7.9668169708959680e-01  1.1574675133355909e+00  1.1103727697276100e+00  9.5923156710330648e-01  7.6728808783769276e-01  8.1071655400545650e-01  8.4887903767171313e-01  1.1361426237235785e+00  7.6091036726905337e-01  7.4784122886000026e-01  7.1711758597690589e-01  1.1307662949322743e+00  8.8051262323915824e-01  7.5520728349729538e-01  5.8700209242111456e-01  6.0242700068480737e-01  9.4283283141361152e-01  9.4234363123725129e-01  1.1534692096597896e+00  7.0545304769408346e-01  8.5155319655400896e-01  6.1153815621238250e-01  8.9491840729401995e-01  8.4874052520567389e-01  8.1639386247070311e-01  9.5809563572754874e-01  1.1586625645739315e+00  6.5823325550607237e-01  1.1175017735862895e+00  5.7332243606076427e-01  1.1378792131179496e+00  7.5276106669373644e-01  8.4926523100361706e-01  9.4910107045368275e-01  1.0429770867918975e+00  6.3585523771423091e-01  9.1714715686540815e-01  7.0428465586647016e-01  9.8501158462043426e-01  1.1153213247452747e+00  6.1762333538925129e-01  7.3523422468190780e-01  6.3745808327439057e-01  9.8695790543513429e-01  9.6593592368262726e-01  8.5021555370934343e-01  1.0242174587874284e+00  7.4925774561027880e-01  8.7294067404258768e-01  6.4672472464663189e-01  9.3187538620990151e-01  6.9242926474872046e-01  7.4268563890362627e-01  9.2794584142810854e-01  7.1226788491167425e-01  6.4483199879916908e-01  7.0438687799928645e-01  5.6965948896121166e-01  8.1784919981841864e-01  6.6827577349348277e-01  1.0251334808381167e+00  7.4696586933440801e-01  5.6717535420365039e-01  6.7993093619961853e-01  8.9591626916975198e-01  8.5378985499844617e-01  9.2453874076532927e-01  7.3866792128160430e-01  1.0676976112743946e+00  1.0485104172927202e+00  7.9801626742266418e-01  7.2061122956920842e-01  8.7778573323032816e-01  6.8174063032097687e-01  8.5332257578530113e-01  9.0582926368037431e-01  8.1530537714555762e-01  8.5567201501757106e-01  7.3945013076455279e-01  1.1242380911913725e+00  9.2789146269471479e-01  8.4701944174029098e-01  1.0545603383130875e+00  9.3158241999194535e-01  9.1965435139342677e-01  8.3682773906859731e-01  8.0052988950225523e-01  1.0436567634756728e+00  9.3843122879325658e-01  7.1692747871448148e-01  1.0143018748948991e+00  9.6443449541163273e-01  8.5478010437861796e-01  9.7546138451042019e-01  1.1505438962581171e+00  8.3287553247896096e-01  8.5505052193217324e-01  7.4528358710269593e-01  1.0601264494869029e+00  7.8942538210140234e-01  8.4944130794348904e-01  9.2079929383763037e-01  1.0127730274577820e+00  6.7159107855421996e-01  7.7838463403440206e-01  1.1310327519460075e+00  8.5951294650023702e-01  9.3129496250735511e-01  1.0887966961052378e+00  6.5422880564138708e-01  1.0151271137820281e+00  1.1498256901880564e+00  6.6514253153268466e-01  6.7492984162515945e-01  9.5383956789398616e-01  7.2123272821056650e-01  7.6419264772001838e-01  5.6600269181862062e-01  6.7419001325108774e-01  1.1468269969484308e+00  1.0987901699567006e+00  1.0866997076027052e+00  1.1054193307436342e+00  9.5763795089291315e-01  1.0886754125192084e+00  8.9183631252897000e-01  9.0550539985838918e-01  9.5001788747004023e-01  9.2068042382637560e-01  9.8941516211155389e-01  9.8070663169551764e-01  8.7996457218055979e-01  1.0736605337533454e+00  1.1494993449075750e+00  8.8189848984363484e-01  1.1522620922546190e+00  9.5147808348735652e-01  1.1368387989989230e+00  1.1282837242009924e+00  9.7661099028061682e-01  8.6303431500461547e-01  9.6843351054866267e-01  1.0237116405561866e+00  8.1163620121149760e-01  1.1017716964355617e+00  1.0961914127425316e+00  7.5765835314785368e-01  1.1387983377769630e+00  5.5344387780655313e-01  9.2689203158054090e-01  1.0205722066332510e+00  6.8650374995555119e-01  9.2952603002991774e-01  1.0136913446560836e+00  1.0598796672160280e+00  1.1249813696934146e+00  1.1453997580343858e+00  9.4705712659240748e-01  1.0324760014013494e+00  1.1484152144858768e+00  7.3032954754262014e-01  6.2097302979032809e-01  1.1113861303458097e+00  9.2288741941534769e-01  8.9262254997969559e-01  1.0711893888187409e+00  8.5047469365323769e-01  8.9442859421769649e-01  7.7870794749222538e-01  8.4255114975900880e-01  9.0339640031221236e-01  9.6152841708715664e-01  7.3871875590793734e-01  9.3220872817763867e-01  9.4431304525834858e-01  7.3514594055736426e-01  9.5163445865602103e-01  1.0446379251028557e+00  6.9425274678103766e-01  1.0731949284175242e+00  9.1592192995570243e-01  8.9042127875918509e-01  7.6695211652572537e-01  8.8530991307705265e-01  9.3680285049510281e-01  1.0446545354325607e+00  7.8069099070753534e-01  8.0832381624075400e-01  6.8141545938991510e-01  8.1876927258487986e-01  7.5548985123548451e-01  1.1136095742819248e+00  8.7441356584574315e-01  7.6783099032639623e-01  7.3216057753134389e-01  6.4456006746397898e-01  9.4342102012683049e-01  1.0777393970866371e+00  8.9825951533188175e-01  6.7493932308762317e-01  7.9404307061367796e-01  9.3433270137173718e-01  9.2652150946868650e-01  8.1577131353837651e-01  1.0121189897190728e+00  9.8853297886778435e-01  9.7279837957742821e-01  1.0942171043279219e+00  1.1575437823679355e+00  1.1257731980219279e+00  1.0267195948735610e+00  9.8830040518551987e-01  1.0857399700033625e+00  1.1459791658725287e+00  9.2170132769404833e-01  1.1572513262801802e+00  9.1318248123425927e-01  9.5308381900993078e-01  8.8289182561064716e-01  7.4472845382708430e-01  1.0943236156087979e+00  7.5861318765141372e-01  6.7314777693493688e-01  9.3774098849200915e-01  1.0298698081465267e+00  9.1823926016877833e-01  1.1561586666078056e+00  1.1369091806512777e+00  9.1396153920814183e-01  1.1494830298772236e+00  1.1163890125269389e+00  1.0742468734044821e+00  8.3295071213649197e-01  1.0877263527506225e+00  9.7431175480454968e-01  5.8977212800467660e-01  1.1170974209304236e+00  7.9792743313405423e-01  1.0507520688341556e+00  1.0099773650951751e+00  8.0354720765068655e-01  7.4650017704568972e-01  8.4154248257022823e-01  9.1700592681957394e-01  1.0573468170123812e+00  6.5608524115976019e-01  1.1506990633663809e+00  8.9159266462847631e-01  9.6090814392684998e-01  5.5509404523748251e-01  9.4553665766508432e-01  6.2076155353267848e-01  5.8831958821549202e-01  9.6277000785538425e-01  1.0768297591985161e+00  1.0586101579149989e+00  8.7058394793947647e-01  1.0107379326543118e+00  1.0669599059676138e+00  1.1434018367402183e+00  8.6262678197441911e-01  6.6694080107576514e-01  9.0831874737796692e-01  9.0011079488944268e-01  6.4128606973187474e-01  7.4438990925733162e-01  1.0377420994747004e+00  6.8649806044139861e-01  9.9066601323982617e-01  9.3901717475077329e-01  7.6962272228214856e-01  9.1001333266698303e-01  9.6992727054526995e-01  7.6366675770631420e-01  7.0243050354050474e-01  9.8917909048634456e-01  1.0547083310183705e+00  1.1243366792531593e+00  9.0907294328316968e-01  9.1914004195483012e-01  8.5441456000694005e-01  9.7352766253109613e-01  8.0954887275951726e-01  7.7171732757620204e-01  9.6670449715357476e-01  </DataArray> 
</PointData> 
</Piece>
</UnstructuredGrid>
</VTKFile>