<?xml version="1.0"?>
<VTKFile type="UnstructuredGrid"  version="0.1"  >
<UnstructuredGrid>
<Piece  NumberOfPoints="622" NumberOfCells="1116">
<Points>
<DataArray  type="Float64"  NumberOfComponents="3"  format="ascii">-6 -2 0  -6 2 0  6 2 0  6 -2 0  -2.8 0 0  -1.2 0 0  -5.500000000001853 -2 0  -5.000000000003705 -2 0  -4.500000000005556 -2 0  -4.000000000007409 -2 0  -3.50000000000926 -2 0  -3.000000000011112 -2 0  -2.500000000012963 -2 0  -2.000000000014814 -2 0  -1.500000000016665 -2 0  -1.000000000018516 -2 0  -0.5000000000203677 -2 0  -2.204547655537681e-11 -2 0  0.4999999999796305 -2 0  0.9999999999814779 -2 0  1.499999999983327 -2 0  1.999999999985175 -2 0  2.499999999987029 -2 0  2.999999999988882 -2 0  3.499999999990735 -2 0  3.999999999992589 -2 0  4.49999999999444 -2 0  4.999999999996293 -2 0  5.499999999998147 -2 0  6 -1.500000000001387 0  6 -1.000000000002774 0  6 -0.5000000000041616 0  6 -5.505595979116151e-12 0  6 0.4999999999958384 0  6 0.9999999999972258 0  6 1.499999999998613 0  5.500000000001853 2 0  5.000000000003705 2 0  4.500000000005556 2 0  4.000000000007409 2 0  3.50000000000926 2 0  3.000000000011112 2 0  2.500000000012963 2 0  2.000000000014814 2 0  1.500000000016665 2 0  1.000000000018516 2 0  0.5000000000203677 2 0  2.204547655537681e-11 2 0  -0.4999999999796305 2 0  -0.9999999999814779 2 0  -1.499999999983327 2 0  -1.999999999985175 2 0  -2.499999999987029 2 0  -2.999999999988882 2 0  -3.499999999990735 2 0  -3.999999999992589 2 0  -4.49999999999444 2 0  -4.999999999996293 2 0  -5.499999999998147 2 0  -6 1.500000000001387 0  -6 1.000000000002774 0  -6 0.5000000000041616 0  -6 5.505595979116151e-12 0  -6 -0.4999999999958384 0  -6 -0.9999999999972258 0  -6 -1.499999999998613 0  -2.796147781337886 -0.07841371226233997 0  -2.784628224322852 -0.1560722576115546 0  -2.765552268586196 -0.2322277418021561 0  -2.739103626009626 -0.30614674589063 0  -2.705537011479457 -0.3771173894593519 0  -2.665175689843037 -0.4444561864141836 0  -2.618408362691456 -0.5075146273293722 0  -2.565685424950688 -0.5656854249477874 0  -2.507514627332613 -0.6184083626887972 0  -2.444456186417533 -0.6651756898407991 0  -2.377117389462776 -0.7055370114776264 0  -2.306146745894456 -0.7391036260080417 0  -2.232227741806235 -0.7655522685849585 0  -2.15607225761588 -0.784628224321992 0  -2.078413712266957 -0.7961477813374315 0  -2.000000000003407 -0.7999999999999998 0  -1.921586287739523 -0.7961477813380696 0  -1.843927742389945 -0.7846282243231506 0  -1.767772258198879 -0.7655522685865098 0  -1.693853254109962 -0.7391036260098718 0  -1.622882610540873 -0.7055370114795768 0  -1.555543813585629 -0.6651756898429115 0  -1.49248537267008 -0.6184083626910072 0  -1.434314575051535 -0.5656854249500112 0  -1.381591637310384 -0.5075146273316149 0  -1.334824310158267 -0.4444561864161359 0  -1.294462988521423 -0.3771173894609975 0  -1.260896373990956 -0.3061467458920351 0  -1.234447731414138 -0.2322277418032578 0  -1.215371775677287 -0.156072257612254 0  -1.203852218662147 -0.07841371226267954 0  -1.203852218662115 0.07841371226235888 0  -1.215371775677132 0.156072257611478 0  -1.234447731413795 0.232227741802127 0  -1.260896373990353 0.3061467458905811 0  -1.294462988520456 0.3771173894591898 0  -1.334824310156812 0.444456186413959 0  -1.381591637308413 0.5075146273292139 0  -1.434314575049147 0.5656854249476236 0  -1.492485372667197 0.6184083626886415 0  -1.555543813582104 0.6651756898405565 0  -1.62288261053673 0.7055370114773629 0  -1.693853254105125 0.7391036260078683 0  -1.767772258193396 0.7655522685848468 0  -1.84392774238373 0.7846282243219146 0  -1.921586287732977 0.7961477813374253 0  -1.999999999996558 0.8 0  -2.078413712260516 0.7961477813380661 0  -2.156072257610207 0.7846282243231205 0  -2.232227741801178 0.7655522685864928 0  -2.306146745890059 0.7391036260098632 0  -2.377117389459098 0.7055370114795929 0  -2.444456186414405 0.6651756898428894 0  -2.50751462732998 0.6184083626909587 0  -2.565685424948549 0.5656854249499272 0  -2.61840836268981 0.5075146273313792 0  -2.665175689841831 0.4444561864159886 0  -2.705537011478692 0.3771173894607835 0  -2.739103626009108 0.3061467458918818 0  -2.76555226858589 0.2322277418031643 0  -2.784628224322724 0.1560722576122001 0  -2.796147781337853 0.07841371226267957 0  0.6720367661319522 0.1312687487860887 0  -4.389489086394485 0.3544472233398538 0  -3.816221554046232 -0.6097988664512611 0  -3.552726516474419 0.9342959806851625 0  -0.2536610443052337 0.8162373554653355 0  -0.1843238977799138 -0.6649951410982842 0  -3.613359951620445 0.1086570650978273 0  -3.146954163409593 -1.074378179335012 0  -0.4255266515582625 0.07734891565364931 0  -0.9413731612925856 1.168014724254929 0  -2.947764053183577 1.200029094390044 0  -0.8319852757411681 -1.058626838707328 0  2.675418990747819 -1.137325591670363e-12 0  -2.602010642259726 -1.287560129290477 0  -2.334401622060699 1.335006108940604 0  -1.524718496628401 1.32890816230333 0  -1.369813829148039 -1.26145150481762 0  -3.294065651892671 -0.4630240940010318 0  -2.072749204569071 -1.388981302138359 0  -0.7546165313921411 0.5601792161340381 0  -3.224879719581335 0.4382689715877901 0  -0.7073137361349826 -0.4625305410752652 0  4.326242945813966 0.3262429458150917 0  -3.187880061217201 0.07437712177460168 0  -2.94792024259867 0.7030255657465158 0  -2.678809277907896 0.9152683582887104 0  -4.911626141576894 -0.5700186648601188 0  -2.980647654587299 -0.5685006168686053 0  -2.769438919323564 -0.8202775213660614 0  -1.936950121013948 1.220669938589229 0  -0.8971643766260747 0.2762459428874499 0  -0.8760878018253068 -0.06836412137772707 0  -1.086827485441145 0.6772548942594016 0  -1.31355927028917 0.8808768148414213 0  -1.034266382739347 -0.5912381576649568 0  -1.241594139118264 -0.836771920085274 0  1.667161185638911 -0.6367996576268693 0  1.778189842800902 0.7191719841256095 0  -3.065106827511819 -0.266795371500425 0  3.714311277362231 -0.7275465302492842 0  -1.728329421201519 -1.09954751473283 0  4.870629493137888 -0.7325040699186681 0  -3.024707894719303 0.2567561910603656 0  -4.375540207252226 1.228935704312058 0  -2.272077148001781 -1.086192861256262 0  3.351408248797803 0.9175227128129597 0  -5.141847419540732 0.8091901960109126 0  0.5769368286199241 1.111816231125821 0  0.7411482978492124 -1.079569101289617 0  -1.074013749991219 0.430231207546053 0  -1.04664573441257 -0.3358382377487088 0  -2.439195336951085 0.9224778883059374 0  -2.902607676587358 0.4360473765597399 0  -1.629450174302152 1.035617385691805 0  -2.146859933125513 1.032375363966426 0  2.587625196444542 -0.9999926061845814 0  -2.529286802957126 -0.8830616815739111 0  -1.493798157676768 -0.8794705728517196 0  -1.932158132383022 -1.026681566564148 0  -4.09956359341904 -0.1372485582942864 0  5.055802064425553 1.050933510837308 0  -4.413659685984891 -1.207626391697488 0  -4.961411026474009 0.1201902955685026 0  -3.771151641156835 -1.303594976371997 0  -3.001321503506133 -0.04919177107285733 0  -3.881733605683001 0.5124517634812003 0  -0.1971627317996802 -1.336445372382849 0  -2.742825060181767 0.6732573903735507 0  2.520439429199979 1.129372838786189 0  -1.026326428668429 0.1384273198437734 0  -2.779290004861729 -0.5844691722665721 0  -2.895095740820851 -0.4261289730972082 0  -1.275682076193407 0.6630703172777138 0  0.1045291701958869 0.3433373435296472 0  5.175560481258801 0.0608563229178163 0  -1.211574424201636 -0.5847362589868093 0  -1.85847006217035 1.007917631940711 0  4.152535916385823 1.131901130662082 0  -1.04878257200685 -0.1253529988863012 0  1.432836501626023 0.05634449574318775 0  3.560672936003603 0.01188897172456759 0  -3.351823698389408 -0.1821329582635926 0  -5.145153363200735 -1.259166339382508 0  0.03473693330309885 -0.1724947236036572 0  -4.377830921337186 -0.6172564090242229 0  -0.3943750728122595 1.410897156959435 0  -1.661073679471639 -0.9342065000197183 0  -1.49086536677686 0.8331714487926741 0  -2.584486130952032 0.7871482690034864 0  4.270535884593893 -1.259607924744415 0  -1.757417028085795 -1.505182186951191 0  -3.430586920998477 1.425579221231371 0  -2.917598827418652 -0.2298465409534677 0  -2.328978331116049 -0.9300959620317677 0  -2.148543000691344 -0.9751580214451921 0  1.002654111360038 -0.4521702885594788 0  -4.628651824080903 -0.1127998710567241 0  -2.948904386702482 0.1555943115410545 0  0.4165242577134774 -0.5629432649478633 0  -3.698137692471105 -0.3173027948676715 0  -3.491400684461791 -0.7926319721650269 0  -0.3844454817728994 0.4680628696134375 0  -3.207830713508533 0.9778749990559993 0  3.229909751065535 -1.326302454776001 0  5.330007715336748 -1.312905173261894 0  -2.649214054100534 -0.713314536278899 0  1.342022964818772 -1.328315248672686 0  -2.556460939068198 1.202372762828344 0  -0.3497819755044588 -0.3080427614060888 0  -4.928440909495523 1.387622767511967 0  1.309170811945155 1.337467055109531 0  -1.352031940181449 -0.7151198948590243 0  -0.6132855723904642 0.9519045895123004 0  4.266838388406324 -0.3707357390867402 0  -3.834389788310238 1.371594798941152 0  -1.187890214580146 0.4851427123079557 0  -1.109118888029193 0.3185947354467283 0  0.1837819401738013 1.234799661476361 0  1.108165254659559 0.6237223548284967 0  -0.5266600156584522 -0.8113991260886402 0  -4.643822083543982 0.7834094684931707 0  -1.146235204666366 -0.4027330721405781 0  2.049029845992713 -0.2664662499985428 0  2.002665761665898 -1.328912351029848 0  -1.678783505586872 0.8978832065736417 0  -2.049499525232052 0.9483890761590005 0  -2.229972236535132 0.9181006323151361 0  -3.033763529945482 -1.54240494280775 0  -3.562344364746847 0.5622550957224539 0  -5.524396842903405 -0.2709714867672603 0  -0.9710982764034376 -1.549038578476423 0  3.058819320130555 -0.5375106252795963 0  -4.170365230099585 0.7342553699229977 0  -1.045878746461381 -8.187420622554697e-05 0  -1.864822945411764 -0.9219031104673102 0  -0.6251005091687033 -0.2120650512195049 0  2.317562622406059 0.4886417799113238 0  -0.6674371191466613 0.1483993095055008 0  -2.705757882979874 1.609712312948224 0  
[...]
<PointData  Scalars="f_24"> 
<DataArray  type="Float64"  Name="f_24"  format="ascii">9.9999997515071470e-01  9.9999997515071470e-01  9.9999997515071470e-01  9.9999997515071470e-01  4.4643056463710640e-01  8.6086507670108292e-01  9.8394944331185252e-01  9.6866691513334668e-01  9.5406312806279359e-01  9.4235795440542824e-01  9.3413156432351174e-01  9.3056627585731000e-01  9.2458895809650898e-01  8.9724445751546167e-01  8.3982978779099182e-01  8.5946226201493869e-01  9.6923819997961347e-01  1.0750517215964404e+00  1.1290499743007250e+00  1.1482606713849524e+00  1.1478756482350359e+00  1.1369352523022136e+00  1.1210414722668682e+00  1.1032067831723782e+00  1.0867059264816097e+00  1.0681863968007486e+00  1.0520706639112007e+00  1.0335623464132127e+00  1.0176905522162152e+00  9.9999997515071470e-01  9.9999997515071470e-01  9.9999997515071470e-01  9.9999997515071470e-01  9.9999997515071470e-01  9.9999997515071470e-01  9.9999997515071470e-01  1.0175113048226396e+00  1.0337728932669643e+00  1.0520505027603335e+00  1.0678205908912717e+00  1.0863285461617005e+00  1.1041435276306188e+00  1.1200204082156120e+00  1.1367230839795734e+00  1.1474151148779543e+00  1.1474238187732659e+00  1.1286762252165181e+00  1.0764507116622777e+00  9.7371764414168482e-01  8.5418915022161446e-01  8.5968260033508603e-01  8.9759238341169867e-01  9.2623592858993808e-01  9.3095457992754904e-01  9.3433329453604730e-01  9.4187001480855770e-01  9.5437495186527666e-01  9.6835333872857143e-01  9.8362502417083419e-01  9.9999997515071470e-01  9.9999997515071470e-01  9.9999997515071470e-01  9.9999997515071470e-01  9.9999997515071470e-01  9.9999997515071470e-01  9.9999997515071470e-01  4.4988065337250888e-01  4.6095863408023313e-01  4.6305664847994371e-01  4.8289868241090039e-01  4.9060274783187013e-01  5.3267973440602479e-01  5.3522779045366786e-01  5.9522746729990816e-01  5.9819187352078018e-01  6.6825554082638672e-01  6.9139172040669905e-01  7.6570430487677266e-01  8.0460593514521639e-01  8.5978741371505063e-01  8.9247726024653429e-01  9.1435354770825128e-01  9.1658599435494570e-01  8.9429297302528821e-01  8.5904054626079063e-01  8.2008546031585072e-01  7.8905315832724388e-01  7.6856862564475315e-01  7.6313512889885893e-01  7.6675504237354775e-01  7.7918650826535396e-01  7.9457824167121849e-01  8.1181482268921601e-01  8.2797005664286782e-01  8.4151464249231478e-01  8.5193741395825107e-01  8.5876284530256308e-01  8.5883563617731251e-01  8.5242884698346710e-01  8.4234788990492826e-01  8.2868445917379396e-01  8.1260465290934136e-01  7.9582681378720665e-01  7.7993643658028988e-01  7.6811587887753885e-01  7.6406734497032047e-01  7.7074759195152620e-01  7.9211552576423983e-01  8.2576724577901917e-01  8.6533395585399298e-01  9.0287869837739865e-01  9.2308191663446237e-01  9.2322871793642047e-01  9.0390010392711062e-01  8.6073961345039995e-01  8.2781465779295671e-01  7.7166007589550734e-01  7.0278553083369633e-01  6.3565501537928704e-01  6.3511824664164029e-01  5.5542757141683363e-01  5.5177486646127127e-01  5.2272335415292004e-01  4.9964107977564537e-01  4.7672650348366974e-01  4.7794656682823655e-01  4.5622403356469049e-01  4.5192963912945716e-01  1.1013850586439267e+00  9.3712793402332606e-01  9.1237845872021972e-01  9.1529876649708264e-01  9.9977658169490335e-01  1.0097297926728461e+00  8.7916930185712450e-01  9.1796959636336928e-01  9.6324115314648318e-01  6.9985518413376513e-01  9.2572960316874398e-01  7.4369510220325674e-01  1.1119649401977680e+00  9.3011473475333106e-01  9.2215110377705389e-01  7.5218296628281311e-01  6.9995802997040124e-01  8.5766981402804365e-01  9.0313415309728950e-01  8.7164422328696689e-01  8.4105392821437486e-01  8.9147720551099130e-01  1.0572266645296489e+00  7.9104423785575373e-01  8.5330454888748375e-01  8.8549789059160067e-01  9.6054007111498385e-01  8.1803623563420869e-01  8.6558240852199786e-01  8.5900450856111898e-01  8.7251006204138248e-01  8.8649692227881005e-01  7.7408257059821894e-01  7.0509667721870406e-01  8.0278086916044455e-01  7.1178893940712329e-01  1.1340265445539948e+00  1.1336267102267428e+00  7.6184669950245265e-01  1.0781405359173624e+00  8.0213387735095809e-01  1.0387407513705602e+00  7.4107808298193045e-01  9.4746837126559769e-01  8.7915400400839439e-01  1.0905908774438577e+00  9.6992082200732921e-01  1.1111628994165403e+00  1.1180508153600230e+00  8.2797470796673578e-01  8.4424788774724846e-01  8.5078932764019577e-01  7.4236429513721336e-01  7.7828774582705262e-01  8.6660623439180928e-01  1.1161557157167139e+00  8.4975677524730453e-01  7.4698853972916102e-01  8.4730608880953295e-01  9.1962741946364346e-01  1.0323828849831567e+00  9.4863167470662291e-01  9.6107839568928510e-01  9.3384224760738199e-01  6.9470088514365480e-01  9.1321923071095390e-01  1.0212787606424709e+00  7.9955629943610040e-01  1.1185149507783674e+00  8.6547572469665379e-01  7.5850210369575755e-01  7.3094302838699032e-01  7.6043947609505758e-01  1.0491740728604855e+00  1.0282226152370508e+00  7.8107671066566919e-01  8.4555726183232460e-01  1.0631607639108249e+00  8.6387717952927567e-01  1.1316720459359570e+00  1.0830777350954355e+00  8.4057196545288926e-01  9.7189607963849090e-01  1.0369186206678298e+00  9.3946255772277076e-01  9.6675282962874487e-01  7.9695447538309006e-01  7.5255056457213998e-01  8.1555251115227345e-01  1.0593542228550565e+00  8.4822530541417618e-01  9.3149971275695198e-01  6.6398377803897701e-01  8.4114933637437295e-01  8.5443779707409118e-01  1.1207287892915765e+00  9.4698596147812419e-01  6.6659870472201133e-01  1.0863045183724698e+00  8.9311389412417141e-01  9.0500186501749735e-01  9.6655705634174771e-01  9.0993129774570547e-01  1.0952397660887541e+00  1.0230754751980988e+00  7.8950927793621095e-01  1.1416716315570248e+00  9.2404384388659089e-01  9.7488619700825752e-01  9.6530498256249209e-01  1.1416324793203076e+00  7.4807763886713041e-01  8.6448950198718610e-01  1.0592630215588104e+00  9.3621261736110883e-01  8.0422820081198565e-01  8.4000782953519515e-01  1.0832326979794511e+00  1.1246599471136367e+00  9.1353549080906515e-01  9.5166431154518738e-01  8.2244812889500485e-01  1.1293622499194784e+00  1.1342118977665112e+00  8.1466356618820279e-01  8.6528550370213475e-01  8.3883028897185286e-01  9.3141642084500009e-01  8.9350394177569548e-01  9.8287652650588220e-01  7.9239998138883527e-01  1.0999925657488514e+00  9.3252332959283324e-01  8.6791824079075053e-01  8.5871856782954925e-01  9.2393046464963313e-01  1.1233964115894279e+00  9.1813528441220460e-01  9.3102815784100645e-01  1.1361374012665542e+00  7.4312810723412404e-01  6.5701687052580193e-01  8.8899355092452792e-01  8.8352976954537310e-01  9.8529762737909776e-01  1.0750649248688258e+00  8.0121091855067184e-01  8.8147859075444546e-01  8.8665045679083743e-01  9.0878751759556509e-01  7.4555491362610204e-01  9.0095004448455540e-01  6.6740989209177171e-01  7.8301972560222943e-01  8.4998486812107399e-01  1.0711115808640319e+00  1.0225147195364370e+00  8.8913897595589286e-01  1.1005810902319726e+00  8.2916104522467371e-01  9.8172465613027393e-01  7.8492589155671666e-01  1.1023126729971835e+00  1.0807282815489472e+00  8.4700192266806862e-01  9.0520870890433502e-01  6.9900785474315663e-01  9.2235318862570070e-01  1.0211256125939623e+00  7.7739276427787030e-01  7.4039405419460724e-01  6.7446423632240593e-01  8.0168791188035626e-01  1.1052759101707670e+00  9.2577409220740492e-01  7.4906458267007403e-01  9.7747168229939085e-01  7.9332212158711612e-01  5.9795940162412875e-01  6.2596063120898870e-01  6.6226407598447845e-01  1.0194932581906393e+00  9.2477572969384203e-01  1.0722675135795192e+00  8.2055786751480075e-01  8.5996176800935398e-01  9.5328793762149366e-01  1.0460383885864339e+00  7.8500090965261771e-01  7.0712413321697787e-01  7.5526847777208417e-01  6.0142900125717014e-01  7.5742172653355488e-01  7.6893744470822223e-01  1.0778097599722642e+00  1.0411355298116960e+00  9.3430672229653722e-01  8.9019059261381284e-01  8.3184380478354736e-01  9.3049727969893314e-01  7.3809240956173561e-01  8.8667662009971659e-01  8.5814151730424548e-01  7.9673979355167368e-01  8.4987013213380702e-01  8.6379321690816302e-01  8.9603522532395041e-01  1.0410868541954386e+00  7.8640841842621423e-01  8.2180381430387894e-01  1.1341164069304162e+00  1.1112683483741512e+00  9.6009539540869582e-01  8.0327020133734595e-01  8.8780456501078342e-01  8.5188062216269955e-01  1.1059189496464379e+00  8.6431137968914051e-01  8.4696265043936514e-01  8.0013331620021588e-01  1.1290693833640029e+00  8.4293523842401419e-01  8.7662929286217439e-01  5.8741847270953085e-01  6.1215434335114594e-01  9.4552683359198575e-01  9.4471020592266042e-01  1.1300796040120558e+00  8.5034558476653344e-01  8.5358452626599035e-01  6.2016171797631570e-01  8.8616612194469124e-01  8.5751299468429754e-01  8.3486108642224266e-01  9.5788491399158493e-01  1.1360317315862885e+00  6.9500378460171763e-01  1.0846797124780307e+00  5.6943923819089104e-01  1.1323089004382403e+00  8.1036333310091624e-01  8.5789452166231928e-01  9.2733905508930581e-01  1.0431995928967805e+00  6.6090242814166045e-01  9.3184021516836402e-01  7.7111246756918905e-01  9.8466568530216214e-01  1.1150515764338078e+00  6.3511230619928616e-01  7.8544047481801949e-01  6.6459626737779920e-01  9.8701097090100820e-01  9.4642312519073679e-01  9.1145489799422641e-01  1.0051843270469896e+00  8.7288456869851927e-01  9.0442960255286331e-01  7.7508667702705580e-01  9.2767403628938261e-01  7.5900509779891723e-01  8.4055377902111161e-01  9.2383365386078409e-01  7.9279026200728075e-01  7.7322012813053043e-01  7.8242864254448585e-01  7.1254326915555932e-01  8.0402202310761983e-01  8.0838212704526347e-01  1.0018276226661176e+00  8.8017423754217461e-01  6.8360010560063234e-01  8.2719936091898505e-01  9.2724115565787935e-01  9.1504304526678137e-01  9.2272929759168876e-01  7.2493622087618881e-01  1.0679874328329431e+00  1.0487671074514184e+00  7.8814548992789091e-01  8.4112424072446834e-01  8.6720757397233050e-01  7.4046970556272551e-01  8.3983453526946594e-01  9.3016471936010869e-01  8.1847606660258765e-01  8.6760672165867114e-01  7.3225219381464302e-01  1.1247722072300872e+00  9.2363312686265542e-01  8.5558291778697459e-01  1.0548540756361680e+00  9.3734315641199772e-01  9.2660153390628919e-01  8.2425849100958459e-01  8.0086799484716586e-01  1.0221671382210906e+00  9.3515715255767118e-01  7.0514142551621306e-01  1.0143679341868117e+00  9.6316206272817084e-01  8.6186785388489218e-01  9.7592718393205091e-01  1.1210173164829251e+00  8.3914675672185535e-01  8.6207053266559464e-01  7.8565724031514195e-01  1.0605532381019287e+00  8.8447214073791180e-01  9.0253994166158757e-01  9.2141301853788371e-01  1.0128428505142377e+00  7.2675018821924564e-01  8.0679806897989570e-01  1.1294894822354902e+00  8.5254394318429372e-01  9.3683496709017600e-01  1.0607219340525940e+00  7.6243389326378808e-01  1.0151996680688133e+00  1.1299290416577084e+00  7.1118408721515636e-01  7.6197233773169482e-01  9.5515242509061438e-01  7.5956098576353470e-01  8.3415834950589407e-01  5.6733259163359184e-01  7.6113858912082955e-01  1.1437287972234247e+00  1.0988438105714631e+00  1.0869652469702551e+00  1.1057255553921734e+00  9.5752506820617811e-01  1.0889199686299509e+00  8.3845787674366912e-01  8.9764364949411457e-01  9.0683508025613291e-01  9.2332804259615642e-01  9.6016913138040727e-01  9.8099725116794334e-01  8.7018546554624920e-01  1.0486381044285940e+00  1.1320132984238482e+00  8.7111738729398247e-01  1.1259993694914725e+00  9.4951463781089318e-01  1.1092431168097638e+00  1.1290593809763418e+00  9.7579253115009357e-01  8.6714432672203756e-01  9.6750324536025478e-01  9.9971593024777416e-01  8.4346784626275584e-01  1.1022707047557097e+00  1.0643756864161675e+00  7.6285646053375233e-01  1.1102684706216699e+00  5.5326895344483151e-01  9.1706804289630872e-01  9.8680222741175905e-01  8.3375333409122487e-01  9.0153018272082441e-01  1.0137788426070822e+00  1.0603598698782324e+00  1.1231766464997539e+00  1.1391116721332279e+00  9.4447745999024701e-01  1.0326897666636845e+00  1.1438893622204316e+00  8.3382555751948317e-01  7.7215897433089498e-01  1.1122811343783898e+00  9.3301113576683936e-01  8.8567851640355832e-01  1.0716496329891700e+00  8.9812409388315850e-01  9.1840860213245701e-01  8.0203132827702206e-01  8.5083303776112806e-01  8.9853182947860510e-01  9.4549378896672365e-01  8.5586627306703766e-01  9.2965934475962764e-01  9.4327880357548433e-01  8.2308736556784268e-01  9.3606838137422799e-01  1.0448556673484319e+00  7.5581269353717062e-01  1.0734939732913951e+00  9.1168489640631944e-01  8.9000192847737536e-01  8.7358166811733784e-01  8.7745711470432586e-01  9.3715380344461907e-01  1.0449171616606525e+00  8.0425473355765542e-01  8.6131108707449144e-01  8.2771881157228488e-01  8.3662571247284789e-01  8.3784538700510869e-01  1.0817528801750456e+00  8.7624157812209613e-01  8.0410770654978592e-01  7.2543944804529326e-01  7.6219144757570789e-01  9.4136310893301423e-01  1.0781635971192682e+00  9.3147811308942197e-01  8.2388069627595950e-01  8.2020060430232355e-01  9.1883655919200047e-01  9.2773193319885894e-01  8.3062333969056301e-01  1.0121839716775203e+00  9.8857364204442555e-01  9.7291450984303485e-01  1.0951587172366652e+00  1.1471509690114086e+00  1.1020725438542109e+00  1.0269029087526245e+00  9.8807922967354878e-01  1.0565699320263451e+00  1.1384457868014521e+00  9.3304343611845653e-01  1.1466674303057185e+00  9.3098737465244230e-01  9.5189872076433368e-01  8.6285365657753998e-01  8.7873181786519428e-01  1.0951241211633598e+00  8.4890864350494677e-01  7.0968622176434193e-01  9.3413410628432192e-01  1.0300620642392257e+00  9.2826041653502533e-01  1.1347736922810614e+00  1.1041367104437867e+00  8.9569402221250527e-01  1.1204893530440527e+00  1.1159855016646634e+00  1.0745108903306886e+00  8.8559095729896276e-01  1.0882109321233604e+00  9.5673902048052417e-01  7.3242391943940766e-01  1.0949644327663162e+00  8.4268485163539442e-01  1.0360023030665872e+00  1.0100354499794382e+00  8.1322583829636674e-01  7.2527016407459111e-01  8.3867977481889733e-01  9.1096206998600160e-01  1.0576315191231285e+00  7.3557324245549827e-01  1.1328760715465922e+00  9.0243989822792903e-01  9.5998291925106805e-01  5.6322915196797496e-01  9.4486128931042335e-01  7.2964411517491490e-01  6.6698671867093917e-01  9.6374785122468398e-01  1.0586516560565182e+00  1.0307969371728964e+00  8.7339342233574069e-01  1.0108233702715363e+00  1.0673139160419527e+00  1.1333865593358019e+00  8.6048112015763945e-01  7.3157569090504526e-01  9.0675822268404793e-01  8.9508647171329292e-01  6.8402456657367861e-01  8.5610363281200175e-01  1.0152105975647319e+00  6.7976855912325240e-01  9.9075812854240297e-01  9.4009477511068062e-01  7.5591995970362602e-01  9.0315523695349453e-01  9.7045206969220432e-01  7.4907226867185228e-01  7.1018866060756847e-01  9.8901068503616985e-01  1.0549462229924345e+00  1.1246592826032364e+00  9.3145478649752855e-01  9.0916979458928027e-01  8.5904648703318742e-01  9.7284276941397752e-01  7.6423762863821709e-01  8.4397461894916759e-01  9.6618970359277079e-01  </DataArray> 
</PointData> 
</Piece>
</UnstructuredGrid>
</VTKFile>