<?xml version="1.0"?>
<VTKFile type="UnstructuredGrid"  version="0.1"  >
<UnstructuredGrid>
<Piece  NumberOfPoints="406" NumberOfCells="722">
<Points>
<DataArray  type="Float64"  NumberOfComponents="3"  format="ascii">-6 -2 0  -6 2 0  6 2 0  6 -2 0  -2.8 0 0  -1.2 0 0  -5.500000000001853 -2 0  -5.000000000003705 -2 0  -4.500000000005556 -2 0  -4.000000000007409 -2 0  -3.50000000000926 -2 0  -3.000000000011112 -2 0  -2.500000000012963 -2 0  -2.000000000014814 -2 0  -1.500000000016665 -2 0  -1.000000000018516 -2 0  -0.5000000000203677 -2 0  -2.204547655537681e-11 -2 0  0.4999999999796305 -2 0  0.9999999999814779 -2 0  1.499999999983327 -2 0  1.999999999985175 -2 0  2.499999999987029 -2 0  2.999999999988882 -2 0  3.499999999990735 -2 0  3.999999999992589 -2 0  4.49999999999444 -2 0  4.999999999996293 -2 0  5.499999999998147 -2 0  6 -1.500000000001387 0  6 -1.000000000002774 0  6 -0.5000000000041616 0  6 -5.505595979116151e-12 0  6 0.4999999999958384 0  6 0.9999999999972258 0  6 1.499999999998613 0  5.500000000001853 2 0  5.000000000003705 2 0  4.500000000005556 2 0  4.000000000007409 2 0  3.50000000000926 2 0  3.000000000011112 2 0  2.500000000012963 2 0  2.000000000014814 2 0  1.500000000016665 2 0  1.000000000018516 2 0  0.5000000000203677 2 0  2.204547655537681e-11 2 0  -0.4999999999796305 2 0  -0.9999999999814779 2 0  -1.499999999983327 2 0  -1.999999999985175 2 0  -2.499999999987029 2 0  -2.999999999988882 2 0  -3.499999999990735 2 0  -3.999999999992589 2 0  -4.49999999999444 2 0  -4.999999999996293 2 0  -5.499999999998147 2 0  -6 1.500000000001387 0  -6 1.000000000002774 0  -6 0.5000000000041616 0  -6 5.505595979116151e-12 0  -6 -0.4999999999958384 0  -6 -0.9999999999972258 0  -6 -1.499999999998613 0  -2.776753453941174 -0.1914525314286965 0  -2.708364820523325 -0.3717785376335722 0  -2.598808598538216 -0.5304981265911284 0  -2.454451797386757 -0.65838709271366 0  -2.283683909636528 -0.748012994147384 0  -2.096429344207466 -0.7941670992780535 0  -1.903570655798842 -0.7941670992788195 0  -1.716316090368095 -0.7480129941491368 0  -1.545548202616307 -0.6583870927157747 0  -1.401191401463757 -0.530498126593356 0  -1.291635179477527 -0.371778537635196 0  -1.223246546059047 -0.1914525314295925 0  -1.223246546058803 0.1914525314286035 0  -1.291635179476594 0.3717785376334188 0  -1.401191401461634 0.5304981265909601 0  -1.545548202612898 0.6583870927134221 0  -1.716316090363093 0.7480129941472402 0  -1.903570655792394 0.7941670992780367 0  -2.096429344201276 0.7941670992788055 0  -2.283683909631911 0.7480129941491347 0  -2.454451797383697 0.6583870927157729 0  -2.598808598536385 0.530498126593196 0  -2.70836482052258 0.3717785376349917 0  -2.776753453940975 0.1914525314295042 0  0.4588466633941945 0.2704149791022056 0  -4.424312812173863 0.2760319703992994 0  -3.803977598762586 -0.6841584599595646 0  -0.1330968762779425 -0.6798763971615133 0  2.451109587541276 3.169800318630399e-13 0  -3.563610936250569 0.5929994091167295 0  4.204753319582647 0.2820669554523581 0  -0.4390897559348154 0.6178095532273566 0  -3.041446812595122 1.175550440315544 0  -0.9622132806516797 1.132103015222783 0  1.069493318942931 -0.773608156980569 0  -4.924330687080279 -0.7127064269610045 0  -3.024693497948964 -1.195179289656404 0  -0.9648749555625579 -1.256854520022574 0  -3.443624282349383 -0.2044158249759613 0  -0.5611500783757608 -0.1747080110423833 0  1.60270880116926 0.7487034276124258 0  3.488352576142236 -0.8228939860777884 0  4.816375011670135 -0.8163750116689444 0  3.243628045085357 0.8578172796997985 0  -4.228632884234073 1.228069101636678 0  -2.365220384435482 -1.356128547810356 0  -1.637465979486354 1.3571687267915 0  -1.642380978561139 -1.359365080147485 0  -2.362988915989869 1.356737096243695 0  -5.134120367293631 0.8356299802910161 0  2.077496878467794 -0.9514080034522553 0  4.960859291178299 0.9608592911785537 0  0.3293120056474302 1.148965409695154 0  -5.157560560414062 0.09447106214747865 0  -3.14779387667392 -0.6330563038825547 0  -3.148134455585257 0.4354299640428653 0  -0.8464439673630421 0.4159277415926296 0  -0.9918125625721008 -0.7191748422889824 0  -4.355349213295776 -1.234510499778242 0  1.582074659164868 -0.06850205959954866 0  2.400584045214166 1.204278622181321 0  5.102831660739063 0.03453404176596848 0  4.083259768981113 1.154272958349666 0  -3.992394834362243 -0.1621022234411988 0  0.4290302718942113 -1.225465289645401 0  -3.681487986394671 -1.310544246656267 0  -3.640289698916164 1.187023654838123 0  0.468851680921228 -0.447055967952278 0  3.315209904217932 0.05667935655546536 0  -2.541160649745046 -1.046980928586996 0  -1.45196684542695 1.044189935346116 0  -2.000844595891861 -1.207983108473125 0  -1.453092202970521 -1.061139264918894 0  -2.000050543938391 1.207806685704176 0  -2.548033154566413 1.04418993534851 0  4.13054585796652 -1.232871249381608 0  -0.3301617095463629 1.221692405319566 0  -0.2880491989587189 -1.359626628407983 0  -0.0758941643813178 0.132275811829787 0  2.826389221580753 -1.233168480096227 0  -2.922070412327736 0.7575752117792038 0  1.003070890178416 1.271347915034201 0  -5.319521816151902 -1.310543894393663 0  -1.070407062963812 0.7877698545098388 0  -4.562499863038985 -0.2302396981426722 0  -3.164226661545047 0.07179577787350272 0  -0.9091377812900333 0.132454654016971 0  4.116029045943655 -0.4851826871817362 0  5.316659189209927 -1.316659189208741 0  -0.9498828454673396 -0.4149758979014553 0  -4.037769805263969 0.6896174350675625 0  1.431664772855882 -1.327784137638992 0  -3.646693623568034 0.1600006358878044 0  -2.878371345483476 -0.7910345833001061 0  1.062603041385242 0.2894765870627741 0  -0.547955103783681 0.1635272504420374 0  -4.804809838419659 1.41016301576038 0  -3.042895319571192 -0.3694931303482478 0  -4.59252578392403 0.792267765362792 0  2.823271260730033 -0.5472430318427347 0  -4.28575390662405 -0.7521491832384866 0  -0.5524005545121191 -0.9037367558558163 0  1.815219025072439 1.388812135783969 0  -1.288398729718543 -0.8178399475601057 0  -5.424388493366639 1.35375165044146 0  -2.256991952837567 -1.049538527273222 0  -1.739586738723494 -1.052327527873255 0  -1.738827359988536 1.050180627239116 0  -2.257795730428802 1.049701225145305 0  -0.62222340523776 -0.5483611729237363 0  2.065188519029698 0.5424877383589943 0  0.1055865106318892 0.7347782870471022 0  1.013082573993895 -0.2061877611231605 0  -5.428323520618333 -0.4386412085227075 0  5.374041502384443 -0.5304401760993408 0  3.435185060219232 -1.377658617395091 0  -3.302377238490527 0.8841390072780534 0  -0.9902123298072768 -0.124175295282554 0  0.7186958547669859 0.8724503317343631 0  2.941237214953417 1.390391532351976 0  4.708037787864423 -1.340276032051348 0  5.395029680982659 1.395029680983341 0  3.591022587550188 1.348260650408605 0  2.759385971589342 0.4857447325740718 0  -0.6832705231418494 0.8879387563573758 0  5.437781298507145 0.5981501503262471 0  -2.698603003287285 1.617130043745112 0  -3.463358189947519 -1.013588318179017 0  1.710866040171871 -0.6978716337870808 0  3.642182982762737 0.4555704362064124 0  -2.699802128031161 -1.618310703146212 0  -1.3020054856637 1.619819977935582 0  -2.000000000004996 -1.566396763829867 0  -1.999999999994794 1.566396763830688 0  -1.247812462071684 -1.595232739507426 0  4.59429106759859 1.420052135572917 0  0.9448382581152466 -1.440259145469251 0  -0.116376100998861 -0.2606209011258676 0  -4.774521510507792 0.4245390872783272 0  -2.983910172370106 -0.1208000607277856 0  -3.353983741142061 1.576062863985777 0  -5.473352579109997 0.4917619255280954 0  -4.828650470275986 -1.493148538517745 0  4.639973657165532 -0.2833178611094909 0  -2.660279445404468 0.7699932347178977 0  -1.335045190775955 0.7744876666923373 0  -3.395669172689978 0.2584951122361346 0  2.279110606119369 -1.465899541383697 0  4.734317729212562 0.4520963557364723 0  -0.6334913028224612 1.584213953723378 0  2.121854101359879 -0.4289611127787379 0  -3.474459720833238 -0.4977581316675216 0  -1.066539898844178 0.3411379476537602 0  -3.361849707555382 -1.611428512420182 0  -4.099039818938317 0.3306400369415774 0  -2.935324777364672 0.354721898811665 0  -3.973578595052027 1.482940358734671 0  3.784450148635689 -0.0702780807301525 0  -1.191348122671212 -0.5614501189722798 0  -2.838672605956353 -0.5493179047027598 0  -1.184983441257359 0.5617520886612424 0  -2.811184099847449 0.5574240755049175 0  0.2702752249355158 -0.8003643570420809 0  -0.6945947797857237 -1.593893965175195 0  0.001175881878679056 1.504521009023778 0  0.6072931735145096 1.501814722697789 0  -3.991896293645949 -1.047264188412552 0  -3.734097395159253 -0.3261671578666079 0  -5.539652387691843 -0.8857154182585802 0  -4.395061924111849 1.563293728588296 0  0.2258327611651416 -0.08745142624872881 0  -3.774816634825771 0.8676973328379478 0  2.208484493569073 1.6256686312487 0  0.1309939514660535 -1.566169703482512 0  -5.551414360955331 0.9459842275970113 0  -4.04734138658365 -1.51163984963472 0  -4.947145019546805 -0.3299925153029702 0  4.320410447198621 0.6970857582435144 0  -4.707557346727139 -1.000565649857444 0  1.353711468973986 1.582551234446199 0  1.674156483558973 0.3266252271732694 0  -4.039105552973997 -0.4537604746027087 0  0.01051727619263377 -1.088858357362194 0  -0.2234942609176301 0.8619127912343982 0  -2.95903482691863 0.1219373374385197 0  -4.682467695920681 0.0804575682243254 0  5.535750224195656 -0.1525732643419722 0  -4.290083947414376 -0.0005258314026840717 0  1.136102562417988 0.7655312464039168 0  -2.816589394567214 0.9927597419785312 0  -2.645374456162409 -0.7645902451387543 0  4.18414576655837 1.624276131878667 0  0.7127337088822223 -0.9006358935856398 0  1.972418102153911 0.9727040774616764 0  -2.42199174813501 0.8591219219254587 0  -2.418604734200992 -0.8552987735117754 0  -5.573597213364169 -0.03612430678117123 0  2.024792870869397 0.05574071630590883 0  -1.578875191508968 0.861424470724936 0  -1.54706008231699 -0.8630049102346303 0  3.848662181064435 -1.569601980075533 0  -2.000000000003871 -0.9746445732264465 0  -1.99999999
[...]
<PointData  Scalars="f_24"> 
<DataArray  type="Float64"  Name="f_24"  format="ascii">-6.4840137122608132e-01  -6.4840137122608132e-01  0.0000000000000000e+00  0.0000000000000000e+00  -8.9639833595301310e-01  -9.1840792072068342e-02  -6.4736624291045708e-01  -6.4568606519322247e-01  -6.4297520374204808e-01  -6.3841071188720366e-01  -6.2992423865687053e-01  -6.0728219035589459e-01  -5.6164483910725260e-01  -4.5137542265339048e-01  -3.0124426955427314e-01  -1.7145139223842562e-01  -9.3533689811805584e-02  -5.2523197893458780e-02  -3.2124194887965765e-02  -2.1142380127486177e-02  -1.4467950457716278e-02  -1.0831282129400228e-02  -7.8886517898789921e-03  -6.2485796424749905e-03  -4.5557510595194001e-03  -3.4228476318580881e-03  -2.3464994558202411e-03  -1.3395460964489882e-03  -8.0504951328210818e-04  0.0000000000000000e+00  0.0000000000000000e+00  0.0000000000000000e+00  0.0000000000000000e+00  0.0000000000000000e+00  0.0000000000000000e+00  0.0000000000000000e+00  -7.9204821455748902e-04  -1.4309522120574359e-03  -2.1942101318724976e-03  -3.5017986589466008e-03  -4.5581174516393722e-03  -6.0846965171845839e-03  -7.9979185073318707e-03  -1.0684718134756455e-02  -1.4761994835934381e-02  -2.1068434769433157e-02  -3.2077103391885874e-02  -5.3089586624161536e-02  -9.2487459955116619e-02  -1.7255470300755621e-01  -3.0016462125334248e-01  -4.5153102797674882e-01  -5.6169656915399990e-01  -6.0706275614125715e-01  -6.3004653620783102e-01  -6.3828589194413010e-01  -6.4324480126980887e-01  -6.4567663785213913e-01  -6.4738716158570730e-01  -6.4840137122608132e-01  -6.4840137122608132e-01  -6.4840137122608132e-01  -6.4840137122608132e-01  -6.4840137122608132e-01  -6.4840137122608132e-01  -6.4840137122608132e-01  -8.8959498988323238e-01  -8.7029621130475954e-01  -8.1563621747764359e-01  -7.2105205339845901e-01  -6.0144088517277083e-01  -4.6225202084499173e-01  -3.2889818639326895e-01  -2.1933035510096383e-01  -1.5131946409710539e-01  -1.1560411073510100e-01  -1.0096321024736199e-01  -9.3909527110117297e-02  -9.3968662033274156e-02  -1.0090299347131508e-01  -1.1654054193353416e-01  -1.5056271895485304e-01  -2.1884431622531522e-01  -3.2907736667540499e-01  -4.6223405444453280e-01  -6.0096143761921905e-01  -7.2173268640437160e-01  -8.1485806725431453e-01  -8.6799765339506152e-01  -8.9119710663372065e-01  -4.5706658842305001e-02  -6.5631964537435838e-01  -6.5845288252837364e-01  -6.8422529538290700e-02  -1.2038803825093786e-02  -6.7355922559269255e-01  -3.7981157126282961e-03  -8.4200139078385111e-02  -6.1852256061892996e-01  -1.6007314445994067e-01  -2.7374135261743794e-02  -6.4837329392048204e-01  -6.1555854101149143e-01  -1.6773811236165143e-01  -7.1065131361740397e-01  -8.4186328328423848e-02  -1.8880929845088105e-02  -5.7166378133826183e-03  -2.1790124592443484e-03  -6.5409611671744736e-03  -6.4128043062848816e-01  -5.3541354602074898e-01  -3.4557637507263117e-01  -3.4712130716621875e-01  -5.3492402755234547e-01  -6.4763191115282570e-01  -1.3206329156990628e-02  -1.8128305942472292e-03  -4.6415634077569545e-02  -6.5015448292475109e-01  -6.9789556978426392e-01  -7.3283893289187085e-01  -1.0099982792615930e-01  -1.2873475781989854e-01  -6.4208400907308805e-01  -2.1273890018292912e-02  -1.0168984501176072e-02  -1.7211518173601238e-03  -3.6420926243752472e-03  -6.6975825196890937e-01  -4.2240018378562755e-02  -6.3158220076623695e-01  -6.3380972906010502e-01  -4.4865216637386011e-02  -6.9919157056173818e-03  -6.0464768082859510e-01  -2.5625798998497795e-01  -4.5887606922455743e-01  -2.5882022005365124e-01  -4.5863846919730816e-01  -6.0673771765710860e-01  -3.5051475390035208e-03  -8.5541794802806909e-02  -8.2469345387347737e-02  -6.4862264570204053e-02  -7.8312467476814619e-03  -6.9163511870916639e-01  -2.6083877843339966e-02  -6.4664573006273141e-01  -1.4546000138918699e-01  -6.5459580632884717e-01  -7.6539919206538443e-01  -9.3617151120905684e-02  -3.9798666985171784e-03  -1.1757715786705342e-03  -1.0455205189856816e-01  -6.5441168190869936e-01  -1.8565059584561373e-02  -6.9148271331944555e-01  -6.8506904182232953e-01  -2.9978501045459443e-02  -8.3691458666902141e-02  -6.4431420913964521e-01  -7.6560144266418517e-01  -6.4833819263543424e-01  -9.0632996868082842e-03  -6.4992562016260902e-01  -9.9056544407390368e-02  -1.4168713955597233e-02  -1.7407014292850745e-01  -6.4692014560444200e-01  -5.4842651871092940e-01  -3.4809880101973617e-01  -3.4735123468297446e-01  -5.4859106707153027e-01  -9.3134588781639133e-02  -1.4559361163580611e-02  -5.7243438379762604e-02  -3.1263517673007467e-02  -6.4849556945024600e-01  -1.1500284471697335e-03  -5.3246441495318000e-03  -6.5503621925120459e-01  -9.4337393268073902e-02  -3.5049403695064957e-02  -7.1401136749985536e-03  -2.2003624099673994e-03  -9.5073492261792212e-04  -4.8872216989118249e-03  -9.5047075033639940e-03  -1.1023685025768552e-01  -9.8015001385792951e-04  -5.6771092675819146e-01  -6.4125572433409583e-01  -1.7678146898676063e-02  -5.4986254258861285e-03  -5.6785609998771480e-01  -2.5402603348334901e-01  -4.4639526622685288e-01  -4.4637942458435009e-01  -2.3869915061505570e-01  -2.3470595118824690e-03  -2.6371529435005380e-02  -6.6567695817307468e-02  -6.5114661589223577e-01  -8.1799481680428954e-01  -6.1582432568238576e-01  -6.4853534957580639e-01  -6.4415400479144247e-01  -2.7180082868799270e-03  -7.0091565519551569e-01  -1.7016273147910635e-01  -7.1212663028761880e-01  -1.0389232563506358e-02  -2.4455810035157767e-03  -1.2217628017043966e-01  -1.4331149595763582e-02  -6.8680998690931749e-01  -1.0180361939999794e-01  -6.1674294998473456e-01  -6.6327045548257302e-01  -7.9811497739347959e-01  -6.3515373473392933e-01  -5.1650805572134445e-03  -1.2258080994306184e-01  -7.6619295645386487e-01  -1.2204197227247034e-01  -7.7047572050821167e-01  -5.0104412020741826e-02  -1.2931952867298940e-01  -6.2289504578897877e-02  -3.5171092970154402e-02  -6.4279864237308004e-01  -6.7932290051124922e-01  -6.4776859750463023e-01  -6.4085230925417291e-01  -5.3660514089681324e-02  -6.5017656651355182e-01  -1.0552690741970964e-02  -5.3864559487719343e-02  -6.4776651301368615e-01  -6.3637067093281341e-01  -6.5054826637127106e-01  -3.3156874896682568e-03  -6.4591477563702693e-01  -1.8872359188925901e-02  -1.9476435710463195e-02  -6.6190899908589029e-01  -6.1735310189406999e-02  -7.3828289855973936e-02  -8.2776425542729359e-01  -6.5354452537412300e-01  -8.7946839009020710e-04  -6.6076360395447964e-01  -2.6181559279411751e-02  -6.3683432165543408e-01  -7.0252573489243486e-01  -3.1179327136242798e-03  -3.5058462966825368e-02  -1.3992681818752167e-02  -6.3840835469230117e-01  -6.3784786251321257e-01  -6.4853150557997452e-01  -1.5817781585083755e-02  -2.3507998042904454e-01  -2.2823562052810215e-01  -4.1115534243819536e-03  -4.4123757902623173e-01  -4.4121669390923202e-01  -5.8938376062209108e-01  -5.0583091107357370e-03  -1.9432144816151034e-01  -3.9630552452827678e-02  -5.9136426334191689e-04  -7.1656720347329159e-04  -8.2431150674846486e-03  -2.3533724776335746e-01  -1.8470307903532801e-01  -1.0087507833699928e-02  -3.1698982570785156e-03  -3.1457590264507944e-03  -1.3984705133788185e-02  -5.6398140943272120e-02  -7.2267043125264740e-01  -9.2095021111985691e-03  -5.8888071694131705e-01  -6.9145308605463240e-01  -4.3537974363877033e-03  -6.9904721224907963e-03  -1.6071125989339536e-03  -7.5154391325439995e-02  -6.7010860334752911e-02  -8.9886807557626930e-02  -2.4335257411520750e-01  -7.7482197706504573e-03  -6.4821880994885939e-01  -3.4065668984790090e-02  -6.7214931700872993e-01  -6.4750061666141889e-01  -7.4996162902335878e-03  -9.3504178786547307e-02  -6.4604499484456157e-01  -6.2793090246532302e-01  -1.1283891046473359e-01  -6.4151054205961744e-01  -7.3370589393158721e-03  -1.0756515949700762e-01  -1.9480306379950310e-02  -5.1169905143280481e-01  -3.6056511043301132e-01  -3.5864647031680358e-01  -5.1162533154679057e-01  -1.9217570065748597e-02  -6.2209143505127185e-01  -5.7127347805077562e-03  -1.2339238754045385e-01  -5.9524073869524595e-04  -6.4678879432809155e-01  -7.7005970509151533e-01  -6.3011062680585994e-01  -3.5109054986393592e-02  -2.4401201793166714e-02  -2.5887007877280158e-03  -6.9543571361160128e-01  -3.4700046393555686e-02  -6.4587734130539876e-01  -6.5094334557174038e-01  -6.4609280135754188e-01  -7.2086987649455425e-01  -7.5073801855491329e-01  -5.5734898949998099e-02  -5.2346495389590970e-03  -9.0135267145804443e-02  -2.0750730289927546e-02  -6.5313658566554544e-01  -7.9719485322553865e-02  -9.3627037428972243e-02  -7.9022188595788976e-04  -1.5490030804169250e-03  -1.0071411766061643e-01  -8.3839653327010877e-02  -1.8692954332552338e-03  -6.2274460494673479e-03  -6.4610278582422165e-01  -8.0965702131482395e-03  -3.6484312408723338e-02  -6.9095994918710346e-01  -6.4208874519162129e-01  -6.4779907847665230e-01  -1.2805216198873420e-01  -6.4687776264702312e-01  -1.4430623989163680e-03  -2.8604629078581387e-03  -8.2836895468579486e-01  -7.7698823854445653e-02  -4.5117848709074079e-02  -2.5516725086382797e-02  -6.4766700696187540e-01  -4.0893246221731169e-03  -3.6818053547326614e-03  -6.2841027006725325e-01  -6.2658167791155894e-01  -6.4908383370866130e-01  -3.8799952167504299e-04  -9.1228435370063921e-02  -1.1090681830161361e-02  -1.0969226791535676e-02  -7.6983971126910078e-02  -2.6666873270001654e-02  -7.3719703562453776e-01  -2.5054010483331408e-02  -6.3510645522230819e-02  -6.4788528469983753e-01  -1.1485702346124087e-01  -5.9922178434557649e-01  -6.7440548989087223e-01  -6.5817982429843780e-01  -1.4290063662505705e-02  -4.5587307233217016e-03  -1.7662013798236190e-01  -4.5747546425212041e-04  -6.4828527216644072e-01  -6.4814660178533856e-01  -1.3684748149013368e-02  -6.6276106932608769e-01  -6.5504405334008431e-01  -6.4400218609007587e-01  -4.4326639505610360e-02  -6.4661207806789645e-01  -6.4600324045893720e-01  -6.4373493082162980e-01  -4.2935819671827587e-03  -1.2276641231601163e-02  -1.7070879041743122e-03  -1.5000429249585426e-01  -5.9895100441365146e-01  -8.4121850844288637e-02  -7.7816751993196029e-02  -6.4849560696474406e-01  -6.1604438110097956e-03  -5.4358683423988685e-01  -5.4319826143500494e-01  -3.1013737377972106e-01  -3.0812785038584917e-01  -2.3715850319001492e-02  -1.7997821830100139e-02  </DataArray> 
</PointData> 
</Piece>
</UnstructuredGrid>
</VTKFile>