<?xml version="1.0"?>
<VTKFile type="UnstructuredGrid"  version="0.1"  >
<UnstructuredGrid>
<Piece  NumberOfPoints="622" NumberOfCells="1116">
<Points>
<DataArray  type="Float64"  NumberOfComponents="3"  format="ascii">-6 -2 0  -6 2 0  6 2 0  6 -2 0  -2.8 0 0  -1.2 0 0  -5.500000000001853 -2 0  -5.000000000003705 -2 0  -4.500000000005556 -2 0  -4.000000000007409 -2 0  -3.50000000000926 -2 0  -3.000000000011112 -2 0  -2.500000000012963 -2 0  -2.000000000014814 -2 0  -1.500000000016665 -2 0  -1.000000000018516 -2 0  -0.5000000000203677 -2 0  -2.204547655537681e-11 -2 0  0.4999999999796305 -2 0  0.9999999999814779 -2 0  1.499999999983327 -2 0  1.999999999985175 -2 0  2.499999999987029 -2 0  2.999999999988882 -2 0  3.499999999990735 -2 0  3.999999999992589 -2 0  4.49999999999444 -2 0  4.999999999996293 -2 0  5.499999999998147 -2 0  6 -1.500000000001387 0  6 -1.000000000002774 0  6 -0.5000000000041616 0  6 -5.505595979116151e-12 0  6 0.4999999999958384 0  6 0.9999999999972258 0  6 1.499999999998613 0  5.500000000001853 2 0  5.000000000003705 2 0  4.500000000005556 2 0  4.000000000007409 2 0  3.50000000000926 2 0  3.000000000011112 2 0  2.500000000012963 2 0  2.000000000014814 2 0  1.500000000016665 2 0  1.000000000018516 2 0  0.5000000000203677 2 0  2.204547655537681e-11 2 0  -0.4999999999796305 2 0  -0.9999999999814779 2 0  -1.499999999983327 2 0  -1.999999999985175 2 0  -2.499999999987029 2 0  -2.999999999988882 2 0  -3.499999999990735 2 0  -3.999999999992589 2 0  -4.49999999999444 2 0  -4.999999999996293 2 0  -5.499999999998147 2 0  -6 1.500000000001387 0  -6 1.000000000002774 0  -6 0.5000000000041616 0  -6 5.505595979116151e-12 0  -6 -0.4999999999958384 0  -6 -0.9999999999972258 0  -6 -1.499999999998613 0  -2.796147781337886 -0.07841371226233997 0  -2.784628224322852 -0.1560722576115546 0  -2.765552268586196 -0.2322277418021561 0  -2.739103626009626 -0.30614674589063 0  -2.705537011479457 -0.3771173894593519 0  -2.665175689843037 -0.4444561864141836 0  -2.618408362691456 -0.5075146273293722 0  -2.565685424950688 -0.5656854249477874 0  -2.507514627332613 -0.6184083626887972 0  -2.444456186417533 -0.6651756898407991 0  -2.377117389462776 -0.7055370114776264 0  -2.306146745894456 -0.7391036260080417 0  -2.232227741806235 -0.7655522685849585 0  -2.15607225761588 -0.784628224321992 0  -2.078413712266957 -0.7961477813374315 0  -2.000000000003407 -0.7999999999999998 0  -1.921586287739523 -0.7961477813380696 0  -1.843927742389945 -0.7846282243231506 0  -1.767772258198879 -0.7655522685865098 0  -1.693853254109962 -0.7391036260098718 0  -1.622882610540873 -0.7055370114795768 0  -1.555543813585629 -0.6651756898429115 0  -1.49248537267008 -0.6184083626910072 0  -1.434314575051535 -0.5656854249500112 0  -1.381591637310384 -0.5075146273316149 0  -1.334824310158267 -0.4444561864161359 0  -1.294462988521423 -0.3771173894609975 0  -1.260896373990956 -0.3061467458920351 0  -1.234447731414138 -0.2322277418032578 0  -1.215371775677287 -0.156072257612254 0  -1.203852218662147 -0.07841371226267954 0  -1.203852218662115 0.07841371226235888 0  -1.215371775677132 0.156072257611478 0  -1.234447731413795 0.232227741802127 0  -1.260896373990353 0.3061467458905811 0  -1.294462988520456 0.3771173894591898 0  -1.334824310156812 0.444456186413959 0  -1.381591637308413 0.5075146273292139 0  -1.434314575049147 0.5656854249476236 0  -1.492485372667197 0.6184083626886415 0  -1.555543813582104 0.6651756898405565 0  -1.62288261053673 0.7055370114773629 0  -1.693853254105125 0.7391036260078683 0  -1.767772258193396 0.7655522685848468 0  -1.84392774238373 0.7846282243219146 0  -1.921586287732977 0.7961477813374253 0  -1.999999999996558 0.8 0  -2.078413712260516 0.7961477813380661 0  -2.156072257610207 0.7846282243231205 0  -2.232227741801178 0.7655522685864928 0  -2.306146745890059 0.7391036260098632 0  -2.377117389459098 0.7055370114795929 0  -2.444456186414405 0.6651756898428894 0  -2.50751462732998 0.6184083626909587 0  -2.565685424948549 0.5656854249499272 0  -2.61840836268981 0.5075146273313792 0  -2.665175689841831 0.4444561864159886 0  -2.705537011478692 0.3771173894607835 0  -2.739103626009108 0.3061467458918818 0  -2.76555226858589 0.2322277418031643 0  -2.784628224322724 0.1560722576122001 0  -2.796147781337853 0.07841371226267957 0  0.6720367661319522 0.1312687487860887 0  -4.389489086394485 0.3544472233398538 0  -3.816221554046232 -0.6097988664512611 0  -3.552726516474419 0.9342959806851625 0  -0.2536610443052337 0.8162373554653355 0  -0.1843238977799138 -0.6649951410982842 0  -3.613359951620445 0.1086570650978273 0  -3.146954163409593 -1.074378179335012 0  -0.4255266515582625 0.07734891565364931 0  -0.9413731612925856 1.168014724254929 0  -2.947764053183577 1.200029094390044 0  -0.8319852757411681 -1.058626838707328 0  2.675418990747819 -1.137325591670363e-12 0  -2.602010642259726 -1.287560129290477 0  -2.334401622060699 1.335006108940604 0  -1.524718496628401 1.32890816230333 0  -1.369813829148039 -1.26145150481762 0  -3.294065651892671 -0.4630240940010318 0  -2.072749204569071 -1.388981302138359 0  -0.7546165313921411 0.5601792161340381 0  -3.224879719581335 0.4382689715877901 0  -0.7073137361349826 -0.4625305410752652 0  4.326242945813966 0.3262429458150917 0  -3.187880061217201 0.07437712177460168 0  -2.94792024259867 0.7030255657465158 0  -2.678809277907896 0.9152683582887104 0  -4.911626141576894 -0.5700186648601188 0  -2.980647654587299 -0.5685006168686053 0  -2.769438919323564 -0.8202775213660614 0  -1.936950121013948 1.220669938589229 0  -0.8971643766260747 0.2762459428874499 0  -0.8760878018253068 -0.06836412137772707 0  -1.086827485441145 0.6772548942594016 0  -1.31355927028917 0.8808768148414213 0  -1.034266382739347 -0.5912381576649568 0  -1.241594139118264 -0.836771920085274 0  1.667161185638911 -0.6367996576268693 0  1.778189842800902 0.7191719841256095 0  -3.065106827511819 -0.266795371500425 0  3.714311277362231 -0.7275465302492842 0  -1.728329421201519 -1.09954751473283 0  4.870629493137888 -0.7325040699186681 0  -3.024707894719303 0.2567561910603656 0  -4.375540207252226 1.228935704312058 0  -2.272077148001781 -1.086192861256262 0  3.351408248797803 0.9175227128129597 0  -5.141847419540732 0.8091901960109126 0  0.5769368286199241 1.111816231125821 0  0.7411482978492124 -1.079569101289617 0  -1.074013749991219 0.430231207546053 0  -1.04664573441257 -0.3358382377487088 0  -2.439195336951085 0.9224778883059374 0  -2.902607676587358 0.4360473765597399 0  -1.629450174302152 1.035617385691805 0  -2.146859933125513 1.032375363966426 0  2.587625196444542 -0.9999926061845814 0  -2.529286802957126 -0.8830616815739111 0  -1.493798157676768 -0.8794705728517196 0  -1.932158132383022 -1.026681566564148 0  -4.09956359341904 -0.1372485582942864 0  5.055802064425553 1.050933510837308 0  -4.413659685984891 -1.207626391697488 0  -4.961411026474009 0.1201902955685026 0  -3.771151641156835 -1.303594976371997 0  -3.001321503506133 -0.04919177107285733 0  -3.881733605683001 0.5124517634812003 0  -0.1971627317996802 -1.336445372382849 0  -2.742825060181767 0.6732573903735507 0  2.520439429199979 1.129372838786189 0  -1.026326428668429 0.1384273198437734 0  -2.779290004861729 -0.5844691722665721 0  -2.895095740820851 -0.4261289730972082 0  -1.275682076193407 0.6630703172777138 0  0.1045291701958869 0.3433373435296472 0  5.175560481258801 0.0608563229178163 0  -1.211574424201636 -0.5847362589868093 0  -1.85847006217035 1.007917631940711 0  4.152535916385823 1.131901130662082 0  -1.04878257200685 -0.1253529988863012 0  1.432836501626023 0.05634449574318775 0  3.560672936003603 0.01188897172456759 0  -3.351823698389408 -0.1821329582635926 0  -5.145153363200735 -1.259166339382508 0  0.03473693330309885 -0.1724947236036572 0  -4.377830921337186 -0.6172564090242229 0  -0.3943750728122595 1.410897156959435 0  -1.661073679471639 -0.9342065000197183 0  -1.49086536677686 0.8331714487926741 0  -2.584486130952032 0.7871482690034864 0  4.270535884593893 -1.259607924744415 0  -1.757417028085795 -1.505182186951191 0  -3.430586920998477 1.425579221231371 0  -2.917598827418652 -0.2298465409534677 0  -2.328978331116049 -0.9300959620317677 0  -2.148543000691344 -0.9751580214451921 0  1.002654111360038 -0.4521702885594788 0  -4.628651824080903 -0.1127998710567241 0  -2.948904386702482 0.1555943115410545 0  0.4165242577134774 -0.5629432649478633 0  -3.698137692471105 -0.3173027948676715 0  -3.491400684461791 -0.7926319721650269 0  -0.3844454817728994 0.4680628696134375 0  -3.207830713508533 0.9778749990559993 0  3.229909751065535 -1.326302454776001 0  5.330007715336748 -1.312905173261894 0  -2.649214054100534 -0.713314536278899 0  1.342022964818772 -1.328315248672686 0  -2.556460939068198 1.202372762828344 0  -0.3497819755044588 -0.3080427614060888 0  -4.928440909495523 1.387622767511967 0  1.309170811945155 1.337467055109531 0  -1.352031940181449 -0.7151198948590243 0  -0.6132855723904642 0.9519045895123004 0  4.266838388406324 -0.3707357390867402 0  -3.834389788310238 1.371594798941152 0  -1.187890214580146 0.4851427123079557 0  -1.109118888029193 0.3185947354467283 0  0.1837819401738013 1.234799661476361 0  1.108165254659559 0.6237223548284967 0  -0.5266600156584522 -0.8113991260886402 0  -4.643822083543982 0.7834094684931707 0  -1.146235204666366 -0.4027330721405781 0  2.049029845992713 -0.2664662499985428 0  2.002665761665898 -1.328912351029848 0  -1.678783505586872 0.8978832065736417 0  -2.049499525232052 0.9483890761590005 0  -2.229972236535132 0.9181006323151361 0  -3.033763529945482 -1.54240494280775 0  -3.562344364746847 0.5622550957224539 0  -5.524396842903405 -0.2709714867672603 0  -0.9710982764034376 -1.549038578476423 0  3.058819320130555 -0.5375106252795963 0  -4.170365230099585 0.7342553699229977 0  -1.045878746461381 -8.187420622554697e-05 0  -1.864822945411764 -0.9219031104673102 0  -0.6251005091687033 -0.2120650512195049 0  2.317562622406059 0.4886417799113238 0  -0.6674371191466613 0.1483993095055008 0  -2.705757882979874 1.609712312948224 0  
[...]
<PointData  Scalars="f_24"> 
<DataArray  type="Float64"  Name="f_24"  format="ascii">9.9999997529413842e-01  9.9999997529413842e-01  9.9999997529413842e-01  9.9999997529413842e-01  4.5057596946180106e-01  8.6051111739797648e-01  9.8413815073973554e-01  9.6905449841654989e-01  9.5468348459897034e-01  9.4325357010599353e-01  9.3533312363765475e-01  9.3224484412629405e-01  9.2717157922931959e-01  9.0169756205838469e-01  8.4503904854858247e-01  8.5690838279960324e-01  9.6208585158363602e-01  1.0686674633845936e+00  1.1238743515649896e+00  1.1438698213997252e+00  1.1448196417315777e+00  1.1352423552292090e+00  1.1199356440787240e+00  1.1024132572130985e+00  1.0860332268013866e+00  1.0676314701939276e+00  1.0516620609546343e+00  1.0332686205520887e+00  1.0175578320219816e+00  9.9999997529413842e-01  9.9999997529413842e-01  9.9999997529413842e-01  9.9999997529413842e-01  9.9999997529413842e-01  9.9999997529413842e-01  9.9999997529413842e-01  1.0173821034285324e+00  1.0334820071112167e+00  1.0516355894114111e+00  1.0672638529993044e+00  1.0856492726221361e+00  1.1033281436182836e+00  1.1189387039517396e+00  1.1350148740996964e+00  1.1443134549211240e+00  1.1430009409031483e+00  1.1235621977661661e+00  1.0703686069914502e+00  9.6618959754451861e-01  8.5297087924762638e-01  8.6271818172396963e-01  9.0168808021855285e-01  9.2858188768244321e-01  9.3246749622040226e-01  9.3546850473480936e-01  9.4272152153414823e-01  9.5496529370494954e-01  9.6871633049168859e-01  9.8378949192791842e-01  9.9999997529413842e-01  9.9999997529413842e-01  9.9999997529413842e-01  9.9999997529413842e-01  9.9999997529413842e-01  9.9999997529413842e-01  9.9999997529413842e-01  4.5417117888632591e-01  4.6564252771024783e-01  4.6892106221975927e-01  4.8955664709570118e-01  4.9924617427779372e-01  5.4102737236781562e-01  5.4523017455586598e-01  6.0364784691704410e-01  6.0840548953805884e-01  6.7712782346096057e-01  7.0082397489696846e-01  7.7407182667661678e-01  8.1265353734611168e-01  8.6780862164283601e-01  9.0140496337973319e-01  9.2507303139232333e-01  9.2985031558353126e-01  9.1005993257064077e-01  8.7670868547296632e-01  8.3861327745567726e-01  8.0684060580787687e-01  7.8456605913413069e-01  7.7651909135120556e-01  7.7736583342798526e-01  7.8711573161200732e-01  8.0013047501928924e-01  8.1545066423386858e-01  8.3006201359483278e-01  8.4253895204608920e-01  8.5220356496387362e-01  8.5855291132483613e-01  8.5859719068227214e-01  8.5260764517348420e-01  8.4322100173949910e-01  8.3065445383045411e-01  8.1601207737195347e-01  8.0115780281186078e-01  7.8758717564066816e-01  7.7841540101270645e-01  7.7713291751910851e-01  7.8635760597031934e-01  8.0944975394973862e-01  8.4375162857388009e-01  8.8236331673480894e-01  9.1789538796436310e-01  9.3531826297442844e-01  9.3308921209321904e-01  9.1199908085503634e-01  8.6815171551661852e-01  8.3525977578741339e-01  7.7983179550533877e-01  7.1203991037234338e-01  6.4615448214639537e-01  6.4384540304261229e-01  5.6662151895879631e-01  5.6049113224260172e-01  5.3211504482479755e-01  5.0821253309296832e-01  4.8405117431234551e-01  4.8353614666983197e-01  4.6120385980161488e-01  4.5620351113412622e-01  1.0959342275163158e+00  9.3728610236106191e-01  9.1248665725957923e-01  9.1570228890840677e-01  9.9317309048381364e-01  1.0046101074914500e+00  8.7878891640769907e-01  9.1882276091580184e-01  9.5887527708367792e-01  6.9804742539688835e-01  9.2709236087994085e-01  7.3638218773398956e-01  1.1107042839521089e+00  9.3304756632904606e-01  9.2620760516413092e-01  7.6774393932189233e-01  7.1560988989699847e-01  8.5726014461550037e-01  9.0964499255264375e-01  8.6803012842554250e-01  8.4056675602626896e-01  8.8802292650158077e-01  1.0567299318728613e+00  7.9032213566541265e-01  8.5363288196473797e-01  8.8849677082991441e-01  9.6075838692254922e-01  8.1821623069551452e-01  8.6787083744721316e-01  8.7097222704654476e-01  8.7110981501045759e-01  8.8470665623072464e-01  7.7749826315980908e-01  7.2028393608976837e-01  8.0455493871631567e-01  7.2348460285616423e-01  1.1298280333775641e+00  1.1298724935754272e+00  7.6148513005122820e-01  1.0774544474616454e+00  8.2073248353906803e-01  1.0384156210619668e+00  7.4090812260848493e-01  9.4799318856770998e-01  8.8781386338752499e-01  1.0898061784152278e+00  9.7013924636182414e-01  1.1080042967187880e+00  1.1141855413734147e+00  8.2930821371460262e-01  8.4472124586947150e-01  8.5846169632164493e-01  7.4307507973746612e-01  7.9774034369059732e-01  8.7604523660208367e-01  1.1149428403690989e+00  8.5639107979917328e-01  7.6636671458993455e-01  8.6147840051443270e-01  9.1963625276695038e-01  1.0321152893928194e+00  9.4915795656281876e-01  9.6124250848787229e-01  9.3468351392740168e-01  6.9465237477355157e-01  9.1328361145050518e-01  1.0139779433941083e+00  8.0220640575287050e-01  1.1173167189818289e+00  8.6477675792328890e-01  7.6098174475874281e-01  7.3189053693403194e-01  7.6902021330118187e-01  1.0443204495746161e+00  1.0279800607290250e+00  7.8694627862434674e-01  8.6069166073978143e-01  1.0626344801351801e+00  8.6332060636420260e-01  1.1266409021075043e+00  1.0823148806334046e+00  8.3993806046070341e-01  9.7218320776995826e-01  1.0318340778002835e+00  9.3970949755144295e-01  9.5676735667657908e-01  8.1655950470829419e-01  7.7046070711122672e-01  8.2147764019231706e-01  1.0588681441924672e+00  8.5880824508692377e-01  9.3260267586969625e-01  6.6489260690089524e-01  8.5015609328902897e-01  8.6454770208456200e-01  1.1155453075424127e+00  9.4713917509531842e-01  6.6713729244945696e-01  1.0819391547446562e+00  8.9290724166780311e-01  9.0519549370064234e-01  9.6146599789549381e-01  9.1045294414757505e-01  1.0944748681474386e+00  1.0228885064147024e+00  7.9459873145167803e-01  1.1372285366468227e+00  9.2722999484580582e-01  9.7021107586346311e-01  9.6566586438666335e-01  1.1369948363905420e+00  7.6021302478745856e-01  8.5314925861637370e-01  1.0587458736283830e+00  9.3705249077505737e-01  8.0793270340008905e-01  8.4087396994383046e-01  1.0799722086995294e+00  1.1196434481527660e+00  9.0455550480832714e-01  9.5195318617103553e-01  8.2469730347627601e-01  1.1267320944782184e+00  1.1322195408108879e+00  8.3329250449323178e-01  8.7568976284457034e-01  8.4794312026049179e-01  9.3306772992354259e-01  8.9339892753233452e-01  9.8296403586343595e-01  7.9068899493026956e-01  1.0989964346901895e+00  9.3280168618238335e-01  8.6713322607904164e-01  8.7388086656657404e-01  9.2037397447679758e-01  1.1217183172407463e+00  9.1490830841216741e-01  9.3298113307517816e-01  1.1339630834355612e+00  7.4511165118018496e-01  6.5876116033895304e-01  8.8676142130158886e-01  8.8357290294112045e-01  9.8541041853029088e-01  1.0716882670954742e+00  8.0561486044367581e-01  8.8142743929220502e-01  8.9159882235284560e-01  9.0869478249214308e-01  7.5893401087715839e-01  8.9774153711452276e-01  6.7074176530023255e-01  7.7887126429390774e-01  8.5033099757735375e-01  1.0674457512933586e+00  1.0223212229126035e+00  8.8959242069760336e-01  1.0997697832767641e+00  8.2378046172028163e-01  9.8181247746081735e-01  7.8424047192639401e-01  1.0981926495460630e+00  1.0800677222679924e+00  8.4639662782118696e-01  9.0621548969254317e-01  7.0407488414382591e-01  9.2407506410364082e-01  1.0209459956512230e+00  7.8578814454448065e-01  7.4674320797388838e-01  6.8935552327812832e-01  8.0139587318413996e-01  1.1042098390202995e+00  9.2846809572967481e-01  7.5018066682570572e-01  9.7765186947686045e-01  8.1212923471913412e-01  5.9952601389547622e-01  6.2823419029823013e-01  6.7177721755581643e-01  1.0193290038856282e+00  9.2512221621125001e-01  1.0716370751643878e+00  8.2978718787944084e-01  8.7084378804666429e-01  9.5348275940669547e-01  1.0456558428231748e+00  7.9405648409971652e-01  7.1266346075875764e-01  7.6311021844114579e-01  6.0267398625088653e-01  7.7247032015321626e-01  7.7805848008469658e-01  1.0771877686217366e+00  1.0407934397761336e+00  9.3480268603806893e-01  8.9004235079808103e-01  8.3161907626885401e-01  9.3167015551082999e-01  7.5861631273939822e-01  8.8481415830411547e-01  8.7451653412598040e-01  8.1500373628450984e-01  8.5018194112951895e-01  8.5158950122885890e-01  9.0207972972674200e-01  1.0407344825169182e+00  7.9266290678757878e-01  8.2424349903332583e-01  1.1293388531448800e+00  1.1103370348143997e+00  9.6058689625141225e-01  8.0759775733554051e-01  8.9501257352752972e-01  8.5066118483517628e-01  1.1013109275571522e+00  8.7542484603580417e-01  8.5595052895504575e-01  8.0856731867157305e-01  1.1269730689333775e+00  8.3458982718410213e-01  8.8833583617668166e-01  5.8983789700342093e-01  6.1575491096365753e-01  9.4627062202952039e-01  9.4549653963106384e-01  1.1251876115799584e+00  8.6745324174081639e-01  8.5223853463011534e-01  6.2350752958677824e-01  8.8589407520005192e-01  8.5738461881062022e-01  8.3633185229608908e-01  9.5825582779501572e-01  1.1311496255972722e+00  7.0074293296307077e-01  1.0795247429275567e+00  5.7123845821730501e-01  1.1289436706439211e+00  8.1827481800377988e-01  8.5770427752556933e-01  9.2043478398610057e-01  1.0428305238674276e+00  6.6581266967644359e-01  9.3335831361005694e-01  7.7999555197423265e-01  9.8473925794409245e-01  1.1138371172104080e+00  6.3942620199495914e-01  7.9202323479901271e-01  6.6964690497064772e-01  9.8715674314493385e-01  9.4080470719106957e-01  9.1606331043684031e-01  9.9805530334445991e-01  8.8558068485085928e-01  9.0760843810597369e-01  7.9195838991932532e-01  9.2774767449223372e-01  7.6794520901605856e-01  8.4996397473613294e-01  9.2395933638920869e-01  8.0176071010980821e-01  7.9056760410048088e-01  7.9126906276044950e-01  7.3222904825703561e-01  8.0336987777618374e-01  8.2524285481976611e-01  9.9690787971286488e-01  8.9405610354523934e-01  7.0115688714290836e-01  8.4560535247041502e-01  9.2930308263412220e-01  9.2048006699796092e-01  9.2315477943194535e-01  7.2462750491528849e-01  1.0673884396159912e+00  1.0483540459528808e+00  7.8785314751174784e-01  8.5513396906687356e-01  8.6676792839729921e-01  7.4829889595536825e-01  8.3914944974670647e-01  9.3236610191598679e-01  8.1746961592732492e-01  8.6880692719402552e-01  7.3255269006973700e-01  1.1235219728936143e+00  9.2372357437541819e-01  8.5535782849350572e-01  1.0543844421381861e+00  9.3838483452588628e-01  9.2767663633540343e-01  8.2365565040937272e-01  8.0132381317282764e-01  1.0170068767269795e+00  9.3530286338377733e-01  7.0512900213929564e-01  1.0142429115818021e+00  9.6333075982236160e-01  8.6145631675866130e-01  9.7620154722047703e-01  1.1154207132002540e+00  8.3994873107697643e-01  8.6163461122124652e-01  7.9066591586631529e-01  1.0600665003742460e+00  8.9383205042043967e-01  9.0702791546134087e-01  9.2208995725672860e-01  1.0127337997865036e+00  7.3510590154223354e-01  8.0997612602224467e-01  1.1274316101187316e+00  8.5233257774334648e-01  9.3795849489935812e-01  1.0549682151004751e+00  7.7696795088107462e-01  1.0150694591500036e+00  1.1248897122826989e+00  7.1823757560451995e-01  7.7372724947095195e-01  9.5569000225747924e-01  7.6487105158118729e-01  8.4190539891539273e-01  5.7001878776497905e-01  7.7318857476382563e-01  1.1410321716436500e+00  1.0978644248518417e+00  1.0861840972459795e+00  1.1047297201760875e+00  9.5786976356870435e-01  1.0881038655327875e+00  8.2522632494853965e-01  8.9744535570882822e-01  8.9355517570384324e-01  9.2409703760950390e-01  9.4931416639423405e-01  9.8122587768656144e-01  8.6981271096529822e-01  1.0438145344147824e+00  1.1271172783603345e+00  8.7066508424332101e-01  1.1213535377543493e+00  9.4971187207100638e-01  1.1046779066620251e+00  1.1277104851514728e+00  9.7589598702244684e-01  8.6625069663303755e-01  9.6767171975632305e-01  9.9489575805871255e-01  8.4680592424005396e-01  1.1013433306039693e+00  1.0591516483321917e+00  7.6410387739648722e-01  1.1057951768108791e+00  5.5573872765552590e-01  9.1397139922711124e-01  9.7863302815622288e-01  8.5155806767640296e-01  8.9489480996739790e-01  1.0136664738960106e+00  1.0598760777549117e+00  1.1213658834457993e+00  1.1352595563261880e+00  9.4462507327099721e-01  1.0324201702948201e+00  1.1409357440139285e+00  8.4633464051205765e-01  7.9169157260860379e-01  1.1113378270198289e+00  9.3443664380365921e-01  8.8555048316338225e-01  1.0710576777143104e+00  9.0259675766470548e-01  9.2065405977736392e-01  8.0480849484740746e-01  8.5053994590570425e-01  8.9860963141166761e-01  9.4123947306075417e-01  8.6806824669991745e-01  9.2995117224470603e-01  9.4366212803635019e-01  8.3117085437557858e-01  9.3172267885988125e-01  1.0444687055225756e+00  7.6452414506499222e-01  1.0728381929290529e+00  9.1183934446487902e-01  8.9030217603625750e-01  8.8304565075135666e-01  8.7723690488511397e-01  9.3770256684119968e-01  1.0445401352962962e+00  8.0659922970950326e-01  8.6688778267086564e-01  8.4535541133962255e-01  8.3790134625328760e-01  8.4654007517557184e-01  1.0766784721882656e+00  8.7497029201677323e-01  8.0831577150399470e-01  7.2588516856737539e-01  7.7853558902214637e-01  9.4159782784599844e-01  1.0774991482564475e+00  9.3399529545001803e-01  8.4145223418940329e-01  8.2293079983665884e-01  9.1399223834727916e-01  9.2841078438181601e-01  8.3153659308483796e-01  1.0120803356638075e+00  9.8867775481986908e-01  9.7317368489949485e-01  1.0944283458256701e+00  1.1429959075683644e+00  1.0987345498996224e+00  1.0266814864139444e+00  9.8815562359526443e-01  1.0507514738219284e+00  1.1346161354856008e+00  9.3440196391677000e-01  1.1426560381001032e+00  9.3287965057157118e-01  9.5218543586651283e-01  8.5691290385277474e-01  8.9338882482050008e-01  1.0943818234835521e+00  8.5841037022025235e-01  7.1649015052562504e-01  9.3423818134694014e-01  1.0298129934905149e+00  9.2964470440856728e-01  1.1299349721752869e+00  1.0986944358591644e+00  8.9011559985317423e-01  1.1150301690836915e+00  1.1146760257957893e+00  1.0738407711239508e+00  8.9005626152187745e-01  1.0874554739740689e+00  9.5252561171133232e-01  7.5164662438227703e-01  1.0915968865282302e+00  8.4773832321681042e-01  1.0302881503017725e+00  1.0099496341704854e+00  8.1443225185443247e-01  7.2257969192019367e-01  8.3637193256332398e-01  9.1091750540742455e-01  1.0571386511771008e+00  7.4693996511501937e-01  1.1280985142013902e+00  9.0369783641549128e-01  9.6020527654248922e-01  5.6711008366034277e-01  9.4524092358134548e-01  7.4538515191553600e-01  6.7995759917210841e-01  9.6417563363054504e-01  1.0544519237257064e+00  1.0258138939013051e+00  8.7229313838376232e-01  1.0107365581086913e+00  1.0667359376301957e+00  1.1293086957599172e+00  8.6061924841637660e-01  7.4185746780300821e-01  9.0715839971201384e-01  8.9263338494516675e-01  6.9209465120433666e-01  8.6758205230572005e-01  1.0102689100705675e+00  6.8055044758069227e-01  9.9086582903498144e-01  9.4076566848508947e-01  7.5545623308065490e-01  9.0304389205305968e-01  9.7081073999398071e-01  7.4855888252179315e-01  7.1252411816556549e-01  9.8909719776588190e-01  1.0544623963472450e+00  1.1232567719418405e+00  9.3340833427929881e-01  9.0583367763747669e-01  8.5820948020267473e-01  9.7300318990690193e-01  7.5618137232690563e-01  8.5227910889688518e-01  9.6644105237777045e-01  </DataArray> 
</PointData> 
</Piece>
</UnstructuredGrid>
</VTKFile>