<?xml version="1.0"?>
<VTKFile type="UnstructuredGrid"  version="0.1"  >
<UnstructuredGrid>
<Piece  NumberOfPoints="406" NumberOfCells="722">
<Points>
<DataArray  type="Float64"  NumberOfComponents="3"  format="ascii">-6 -2 0  -6 2 0  6 2 0  6 -2 0  -2.8 0 0  -1.2 0 0  -5.500000000001853 -2 0  -5.000000000003705 -2 0  -4.500000000005556 -2 0  -4.000000000007409 -2 0  -3.50000000000926 -2 0  -3.000000000011112 -2 0  -2.500000000012963 -2 0  -2.000000000014814 -2 0  -1.500000000016665 -2 0  -1.000000000018516 -2 0  -0.5000000000203677 -2 0  -2.204547655537681e-11 -2 0  0.4999999999796305 -2 0  0.9999999999814779 -2 0  1.499999999983327 -2 0  1.999999999985175 -2 0  2.499999999987029 -2 0  2.999999999988882 -2 0  3.499999999990735 -2 0  3.999999999992589 -2 0  4.49999999999444 -2 0  4.999999999996293 -2 0  5.499999999998147 -2 0  6 -1.500000000001387 0  6 -1.000000000002774 0  6 -0.5000000000041616 0  6 -5.505595979116151e-12 0  6 0.4999999999958384 0  6 0.9999999999972258 0  6 1.499999999998613 0  5.500000000001853 2 0  5.000000000003705 2 0  4.500000000005556 2 0  4.000000000007409 2 0  3.50000000000926 2 0  3.000000000011112 2 0  2.500000000012963 2 0  2.000000000014814 2 0  1.500000000016665 2 0  1.000000000018516 2 0  0.5000000000203677 2 0  2.204547655537681e-11 2 0  -0.4999999999796305 2 0  -0.9999999999814779 2 0  -1.499999999983327 2 0  -1.999999999985175 2 0  -2.499999999987029 2 0  -2.999999999988882 2 0  -3.499999999990735 2 0  -3.999999999992589 2 0  -4.49999999999444 2 0  -4.999999999996293 2 0  -5.499999999998147 2 0  -6 1.500000000001387 0  -6 1.000000000002774 0  -6 0.5000000000041616 0  -6 5.505595979116151e-12 0  -6 -0.4999999999958384 0  -6 -0.9999999999972258 0  -6 -1.499999999998613 0  -2.776753453941174 -0.1914525314286965 0  -2.708364820523325 -0.3717785376335722 0  -2.598808598538216 -0.5304981265911284 0  -2.454451797386757 -0.65838709271366 0  -2.283683909636528 -0.748012994147384 0  -2.096429344207466 -0.7941670992780535 0  -1.903570655798842 -0.7941670992788195 0  -1.716316090368095 -0.7480129941491368 0  -1.545548202616307 -0.6583870927157747 0  -1.401191401463757 -0.530498126593356 0  -1.291635179477527 -0.371778537635196 0  -1.223246546059047 -0.1914525314295925 0  -1.223246546058803 0.1914525314286035 0  -1.291635179476594 0.3717785376334188 0  -1.401191401461634 0.5304981265909601 0  -1.545548202612898 0.6583870927134221 0  -1.716316090363093 0.7480129941472402 0  -1.903570655792394 0.7941670992780367 0  -2.096429344201276 0.7941670992788055 0  -2.283683909631911 0.7480129941491347 0  -2.454451797383697 0.6583870927157729 0  -2.598808598536385 0.530498126593196 0  -2.70836482052258 0.3717785376349917 0  -2.776753453940975 0.1914525314295042 0  0.4588466633941945 0.2704149791022056 0  -4.424312812173863 0.2760319703992994 0  -3.803977598762586 -0.6841584599595646 0  -0.1330968762779425 -0.6798763971615133 0  2.451109587541276 3.169800318630399e-13 0  -3.563610936250569 0.5929994091167295 0  4.204753319582647 0.2820669554523581 0  -0.4390897559348154 0.6178095532273566 0  -3.041446812595122 1.175550440315544 0  -0.9622132806516797 1.132103015222783 0  1.069493318942931 -0.773608156980569 0  -4.924330687080279 -0.7127064269610045 0  -3.024693497948964 -1.195179289656404 0  -0.9648749555625579 -1.256854520022574 0  -3.443624282349383 -0.2044158249759613 0  -0.5611500783757608 -0.1747080110423833 0  1.60270880116926 0.7487034276124258 0  3.488352576142236 -0.8228939860777884 0  4.816375011670135 -0.8163750116689444 0  3.243628045085357 0.8578172796997985 0  -4.228632884234073 1.228069101636678 0  -2.365220384435482 -1.356128547810356 0  -1.637465979486354 1.3571687267915 0  -1.642380978561139 -1.359365080147485 0  -2.362988915989869 1.356737096243695 0  -5.134120367293631 0.8356299802910161 0  2.077496878467794 -0.9514080034522553 0  4.960859291178299 0.9608592911785537 0  0.3293120056474302 1.148965409695154 0  -5.157560560414062 0.09447106214747865 0  -3.14779387667392 -0.6330563038825547 0  -3.148134455585257 0.4354299640428653 0  -0.8464439673630421 0.4159277415926296 0  -0.9918125625721008 -0.7191748422889824 0  -4.355349213295776 -1.234510499778242 0  1.582074659164868 -0.06850205959954866 0  2.400584045214166 1.204278622181321 0  5.102831660739063 0.03453404176596848 0  4.083259768981113 1.154272958349666 0  -3.992394834362243 -0.1621022234411988 0  0.4290302718942113 -1.225465289645401 0  -3.681487986394671 -1.310544246656267 0  -3.640289698916164 1.187023654838123 0  0.468851680921228 -0.447055967952278 0  3.315209904217932 0.05667935655546536 0  -2.541160649745046 -1.046980928586996 0  -1.45196684542695 1.044189935346116 0  -2.000844595891861 -1.207983108473125 0  -1.453092202970521 -1.061139264918894 0  -2.000050543938391 1.207806685704176 0  -2.548033154566413 1.04418993534851 0  4.13054585796652 -1.232871249381608 0  -0.3301617095463629 1.221692405319566 0  -0.2880491989587189 -1.359626628407983 0  -0.0758941643813178 0.132275811829787 0  2.826389221580753 -1.233168480096227 0  -2.922070412327736 0.7575752117792038 0  1.003070890178416 1.271347915034201 0  -5.319521816151902 -1.310543894393663 0  -1.070407062963812 0.7877698545098388 0  -4.562499863038985 -0.2302396981426722 0  -3.164226661545047 0.07179577787350272 0  -0.9091377812900333 0.132454654016971 0  4.116029045943655 -0.4851826871817362 0  5.316659189209927 -1.316659189208741 0  -0.9498828454673396 -0.4149758979014553 0  -4.037769805263969 0.6896174350675625 0  1.431664772855882 -1.327784137638992 0  -3.646693623568034 0.1600006358878044 0  -2.878371345483476 -0.7910345833001061 0  1.062603041385242 0.2894765870627741 0  -0.547955103783681 0.1635272504420374 0  -4.804809838419659 1.41016301576038 0  -3.042895319571192 -0.3694931303482478 0  -4.59252578392403 0.792267765362792 0  2.823271260730033 -0.5472430318427347 0  -4.28575390662405 -0.7521491832384866 0  -0.5524005545121191 -0.9037367558558163 0  1.815219025072439 1.388812135783969 0  -1.288398729718543 -0.8178399475601057 0  -5.424388493366639 1.35375165044146 0  -2.256991952837567 -1.049538527273222 0  -1.739586738723494 -1.052327527873255 0  -1.738827359988536 1.050180627239116 0  -2.257795730428802 1.049701225145305 0  -0.62222340523776 -0.5483611729237363 0  2.065188519029698 0.5424877383589943 0  0.1055865106318892 0.7347782870471022 0  1.013082573993895 -0.2061877611231605 0  -5.428323520618333 -0.4386412085227075 0  5.374041502384443 -0.5304401760993408 0  3.435185060219232 -1.377658617395091 0  -3.302377238490527 0.8841390072780534 0  -0.9902123298072768 -0.124175295282554 0  0.7186958547669859 0.8724503317343631 0  2.941237214953417 1.390391532351976 0  4.708037787864423 -1.340276032051348 0  5.395029680982659 1.395029680983341 0  3.591022587550188 1.348260650408605 0  2.759385971589342 0.4857447325740718 0  -0.6832705231418494 0.8879387563573758 0  5.437781298507145 0.5981501503262471 0  -2.698603003287285 1.617130043745112 0  -3.463358189947519 -1.013588318179017 0  1.710866040171871 -0.6978716337870808 0  3.642182982762737 0.4555704362064124 0  -2.699802128031161 -1.618310703146212 0  -1.3020054856637 1.619819977935582 0  -2.000000000004996 -1.566396763829867 0  -1.999999999994794 1.566396763830688 0  -1.247812462071684 -1.595232739507426 0  4.59429106759859 1.420052135572917 0  0.9448382581152466 -1.440259145469251 0  -0.116376100998861 -0.2606209011258676 0  -4.774521510507792 0.4245390872783272 0  -2.983910172370106 -0.1208000607277856 0  -3.353983741142061 1.576062863985777 0  -5.473352579109997 0.4917619255280954 0  -4.828650470275986 -1.493148538517745 0  4.639973657165532 -0.2833178611094909 0  -2.660279445404468 0.7699932347178977 0  -1.335045190775955 0.7744876666923373 0  -3.395669172689978 0.2584951122361346 0  2.279110606119369 -1.465899541383697 0  4.734317729212562 0.4520963557364723 0  -0.6334913028224612 1.584213953723378 0  2.121854101359879 -0.4289611127787379 0  -3.474459720833238 -0.4977581316675216 0  -1.066539898844178 0.3411379476537602 0  -3.361849707555382 -1.611428512420182 0  -4.099039818938317 0.3306400369415774 0  -2.935324777364672 0.354721898811665 0  -3.973578595052027 1.482940358734671 0  3.784450148635689 -0.0702780807301525 0  -1.191348122671212 -0.5614501189722798 0  -2.838672605956353 -0.5493179047027598 0  -1.184983441257359 0.5617520886612424 0  -2.811184099847449 0.5574240755049175 0  0.2702752249355158 -0.8003643570420809 0  -0.6945947797857237 -1.593893965175195 0  0.001175881878679056 1.504521009023778 0  0.6072931735145096 1.501814722697789 0  -3.991896293645949 -1.047264188412552 0  -3.734097395159253 -0.3261671578666079 0  -5.539652387691843 -0.8857154182585802 0  -4.395061924111849 1.563293728588296 0  0.2258327611651416 -0.08745142624872881 0  -3.774816634825771 0.8676973328379478 0  2.208484493569073 1.6256686312487 0  0.1309939514660535 -1.566169703482512 0  -5.551414360955331 0.9459842275970113 0  -4.04734138658365 -1.51163984963472 0  -4.947145019546805 -0.3299925153029702 0  4.320410447198621 0.6970857582435144 0  -4.707557346727139 -1.000565649857444 0  1.353711468973986 1.582551234446199 0  1.674156483558973 0.3266252271732694 0  -4.039105552973997 -0.4537604746027087 0  0.01051727619263377 -1.088858357362194 0  -0.2234942609176301 0.8619127912343982 0  -2.95903482691863 0.1219373374385197 0  -4.682467695920681 0.0804575682243254 0  5.535750224195656 -0.1525732643419722 0  -4.290083947414376 -0.0005258314026840717 0  1.136102562417988 0.7655312464039168 0  -2.816589394567214 0.9927597419785312 0  -2.645374456162409 -0.7645902451387543 0  4.18414576655837 1.624276131878667 0  0.7127337088822223 -0.9006358935856398 0  1.972418102153911 0.9727040774616764 0  -2.42199174813501 0.8591219219254587 0  -2.418604734200992 -0.8552987735117754 0  -5.573597213364169 -0.03612430678117123 0  2.024792870869397 0.05574071630590883 0  -1.578875191508968 0.861424470724936 0  -1.54706008231699 -0.8630049102346303 0  3.848662181064435 -1.569601980075533 0  -2.000000000003871 -0.9746445732264465 0  -1.99999999
[...]
<PointData  Scalars="f_24"> 
<DataArray  type="Float64"  Name="f_24"  format="ascii">-9.1644824323783103e-01  -9.1644824323783103e-01  0.0000000000000000e+00  0.0000000000000000e+00  -1.1375645835127706e+00  -2.2064666796136317e-01  -9.0649637428371310e-01  -8.9614110749987719e-01  -8.8406997102458051e-01  -8.6996187403364433e-01  -8.5150274083048882e-01  -8.1713856914674143e-01  -7.5790438230427637e-01  -6.3025962309966499e-01  -4.6095675458548158e-01  -3.1301906304484672e-01  -2.1959475330185366e-01  -1.6573447464266669e-01  -1.3364150320357068e-01  -1.1215057536888196e-01  -9.5573801440638914e-02  -8.2506832035666194e-02  -6.9886480573334603e-02  -5.9392738829004220e-02  -4.8678491261253932e-02  -3.8470302976847497e-02  -2.8503979949286710e-02  -1.8701193079597306e-02  -9.6404382882559116e-03  0.0000000000000000e+00  0.0000000000000000e+00  0.0000000000000000e+00  0.0000000000000000e+00  0.0000000000000000e+00  0.0000000000000000e+00  0.0000000000000000e+00  -9.6117924105628815e-03  -1.8872090759404880e-02  -2.8428561393566126e-02  -3.8730240191197814e-02  -4.8608829190634369e-02  -5.9151703054349261e-02  -7.0230607296481395e-02  -8.2302381992831922e-02  -9.5702760977703721e-02  -1.1202381568901576e-01  -1.3359317509172020e-01  -1.6615985376865966e-01  -2.1855190080197145e-01  -3.1420551720753220e-01  -4.5981555219100756e-01  -6.3042383004099034e-01  -7.5795716694834792e-01  -8.1688088930690717e-01  -8.5164332439710433e-01  -8.6987904867831600e-01  -8.8462521074594647e-01  -8.9588262069528013e-01  -9.0657269990945177e-01  -9.1644824323783103e-01  -9.1644824323783103e-01  -9.1644824323783103e-01  -9.1644824323783103e-01  -9.1644824323783103e-01  -9.1644824323783103e-01  -9.1644824323783103e-01  -1.1272381171562946e+00  -1.0991305247411516e+00  -1.0331249290200319e+00  -9.2678522737938351e-01  -7.9638198965198570e-01  -6.4585930309946127e-01  -5.0030495885318094e-01  -3.7838123421862863e-01  -2.9948014954685842e-01  -2.5514907484189009e-01  -2.3455797473646467e-01  -2.2391577245421831e-01  -2.2393222478003905e-01  -2.3447228655913716e-01  -2.5620245372567357e-01  -2.9880109566211716e-01  -3.7791207372362923e-01  -5.0049783226370659e-01  -6.4584468950694329e-01  -7.9586708044847088e-01  -9.2756570231951618e-01  -1.0322210824929512e+00  -1.0967037353400646e+00  -1.1288123097357579e+00  -1.4861483797924538e-01  -8.9760826311867170e-01  -8.8898310007600234e-01  -1.8468141984087824e-01  -7.5814581105820469e-02  -9.0109836828194934e-01  -3.5575810687903511e-02  -2.0670045095839978e-01  -8.3106623014321734e-01  -2.9855507347572530e-01  -1.1768394428177670e-01  -8.9772400063871349e-01  -8.2751255228075138e-01  -3.0718118009618162e-01  -9.3947484809447890e-01  -2.0725432581588307e-01  -9.8663625219321566e-02  -5.0305836935337453e-02  -2.2987243599805657e-02  -5.5577969382365269e-02  -8.7770285627988553e-01  -7.2766400957030752e-01  -5.0978117891674901e-01  -5.1151029471146914e-01  -7.2709648854478048e-01  -9.0057824568977429e-01  -8.3869765997375570e-02  -2.0076584881606841e-02  -1.5255421519323398e-01  -9.0370445376183672e-01  -9.1979997037470396e-01  -9.5822540218431318e-01  -2.2981430771198338e-01  -2.6338725926998341e-01  -8.8081609864872734e-01  -1.0156102966208104e-01  -7.4624120871136096e-02  -1.7531146220327962e-02  -3.7488576197156898e-02  -9.0459940475051559e-01  -1.4609869560883348e-01  -8.5722983373081907e-01  -8.5901863222095198e-01  -1.4765295674303422e-01  -5.4839611432980634e-02  -8.0622269419428672e-01  -4.1032597835090068e-01  -6.3852751375248684e-01  -4.1309422645797966e-01  -6.3825979560735713e-01  -8.0857424771018682e-01  -3.6446364297323411e-02  -2.0763880349056707e-01  -2.0354469231920186e-01  -1.7883894147688775e-01  -6.4384328759600276e-02  -9.0818304846553177e-01  -1.1761293766900360e-01  -9.0268990186031051e-01  -2.8303011340024115e-01  -8.9814717999287341e-01  -9.9493229818545503e-01  -2.2132266301500156e-01  -3.7319114618907689e-02  -1.3098588224893140e-02  -2.3487371450490760e-01  -8.8875628174563837e-01  -1.0148507479256230e-01  -9.2213961391402544e-01  -9.0011586312723524e-01  -1.2047160119984471e-01  -2.0655324573750528e-01  -8.9113937383051234e-01  -9.9234292154294246e-01  -8.9190333230285657e-01  -6.5880284846011272e-02  -8.8825225167242650e-01  -2.2552036539870618e-01  -8.9599712032298953e-02  -3.1801267397440314e-01  -9.0481233732411537e-01  -7.4006146833300435e-01  -5.1495794523981664e-01  -5.1415432260957361e-01  -7.4026052822305199e-01  -2.1886824774755712e-01  -8.5539954635955484e-02  -1.6823589680843479e-01  -1.2276620836994799e-01  -9.0661575460743316e-01  -1.2143955384432682e-02  -5.0725112159438743e-02  -8.7597657414631558e-01  -2.2281289622132813e-01  -1.3259552758485962e-01  -6.1532457353485920e-02  -2.4856070812113596e-02  -1.1518396544773941e-02  -4.7529909674945296e-02  -6.7512595738953796e-02  -2.3962775667710751e-01  -1.0855258450912317e-02  -7.6877004441634411e-01  -8.6395362263845443e-01  -9.5402876951413598e-02  -4.7385607785332393e-02  -7.6894864303463395e-01  -4.0611505923976499e-01  -6.2474555644136298e-01  -6.2473608800972213e-01  -3.8867531655231452e-01  -2.7022640717526823e-02  -1.1904724262283117e-01  -1.8150843221857210e-01  -8.9812306064616598e-01  -1.0505514265699902e+00  -8.3370482265460866e-01  -9.0744068541579748e-01  -8.9134277871288159e-01  -2.6725470370608170e-02  -9.1199249455142473e-01  -3.1470623790641600e-01  -9.4022234665937443e-01  -7.6996513024406285e-02  -2.4764675653024343e-02  -2.5269998932253640e-01  -8.4256816622849895e-02  -9.1393634038920313e-01  -2.3273656058956926e-01  -8.3479430806523269e-01  -8.9944621154460891e-01  -1.0260165838358102e+00  -8.6631645180405958e-01  -4.4503460598417394e-02  -2.5889941137372224e-01  -9.8756329780840724e-01  -2.5825845669894787e-01  -9.9134304083582703e-01  -1.5747008407733831e-01  -2.6160732388048819e-01  -1.7611954087671977e-01  -1.3497997407137524e-01  -8.7522432658851534e-01  -9.1043932911341952e-01  -9.0776565101011952e-01  -8.8007315588316903e-01  -1.6138095624201393e-01  -8.7942672238666453e-01  -7.8398711098855989e-02  -1.6449985667061368e-01  -9.0796385219620468e-01  -8.6892632335427000e-01  -9.0047599679090551e-01  -3.2992936264544581e-02  -8.9123615826835789e-01  -1.0317018069253994e-01  -9.7954789335521375e-02  -8.9691078970247173e-01  -1.7533858623495110e-01  -1.9254173080326217e-01  -1.0611055093345370e+00  -8.9909974295602735e-01  -9.0490156845158733e-03  -9.0006238643454572e-01  -1.1513978840339520e-01  -8.4658480997363239e-01  -9.1329067933951524e-01  -3.5129963947645303e-02  -1.3276446054639338e-01  -8.6599440042007286e-02  -8.3936571041968755e-01  -8.3869473934084182e-01  -9.0917330526289808e-01  -8.7616021369812641e-02  -3.9078499318260040e-01  -3.8258389357809353e-01  -4.2027600272139337e-02  -6.2068471607001008e-01  -6.2066607785513639e-01  -7.9358916880363151e-01  -4.6739097790626072e-02  -3.3913412781887353e-01  -1.3794033372902792e-01  -7.4775432615548244e-03  -7.9875180035357003e-03  -6.4842790756956259e-02  -3.8491798148312462e-01  -3.2777931812135480e-01  -7.2324764562068780e-02  -3.1849583500165868e-02  -3.3866349921951776e-02  -9.0415180948919746e-02  -1.6640274536110661e-01  -9.4941160778587408e-01  -6.5036084327524765e-02  -7.9305128753559972e-01  -9.1260172303243314e-01  -4.1326186919193042e-02  -5.5642035683741577e-02  -1.9124998375324827e-02  -1.9419399126969977e-01  -1.8239215018977142e-01  -2.1569617687200821e-01  -3.9403083894904145e-01  -6.5561410284088059e-02  -8.6523998595255558e-01  -1.3415019543259327e-01  -9.0346653945960675e-01  -9.0838668303206982e-01  -5.8121382333282554e-02  -2.2029668134629765e-01  -8.9338007064698477e-01  -8.4702983196469550e-01  -2.4195263704032230e-01  -8.8173232074560670e-01  -5.9707770853542799e-02  -2.3726293144858154e-01  -1.0512580755412870e-01  -7.0082951067915378e-01  -5.2719601703896812e-01  -5.2501498230744925e-01  -7.0074147707565582e-01  -1.0189706613655283e-01  -8.4004395799153386e-01  -5.4525517342185498e-02  -2.5477329148360212e-01  -7.4938590011239849e-03  -8.9901056245056388e-01  -9.9854113026700753e-01  -8.5594952167154759e-01  -1.3383652544831973e-01  -1.0983590236425712e-01  -2.7918684414076588e-02  -9.2065148423477816e-01  -1.3013079131653862e-01  -8.9897679790916862e-01  -8.9512894015701672e-01  -9.0025645974108937e-01  -9.5002659578546478e-01  -9.7960254922083190e-01  -1.6491440043559266e-01  -4.5782910752531547e-02  -2.1497309637752626e-01  -1.0435401694203097e-01  -8.9302604361834781e-01  -2.0059796293403104e-01  -2.2251073994048820e-01  -8.2253928904021112e-03  -1.8043445577751907e-02  -2.3208553264904500e-01  -2.0523880389666860e-01  -1.9017389297177341e-02  -5.7424079360714433e-02  -8.9826261754429992e-01  -6.7902697527398498e-02  -1.3317596957062952e-01  -9.2191712214490207e-01  -8.7408003208776142e-01  -9.1050903003440797e-01  -2.6122198435552213e-01  -8.8492025522571027e-01  -1.5929876887979918e-02  -2.7810259168139909e-02  -1.0582321383941955e+00  -1.9764952300694880e-01  -1.4870002257023607e-01  -1.1801189413940170e-01  -9.0943556433884265e-01  -4.2905314689688348e-02  -3.4240668064227958e-02  -8.5335265680839290e-01  -8.3474714859651911e-01  -9.0155861772416113e-01  -6.3239602622925523e-03  -2.1724659908599236e-01  -7.3247612885623342e-02  -7.4836604715629501e-02  -1.9676847584778720e-01  -1.1336253325514152e-01  -9.5957985948702285e-01  -1.1451307306800447e-01  -1.7790296106341486e-01  -9.1134234924888102e-01  -2.4735871912489640e-01  -8.0968584746698524e-01  -9.0827879658931410e-01  -8.9732488287331347e-01  -8.9220111421755899e-02  -4.4226056467577400e-02  -3.1703836526517848e-01  -5.5327022432460973e-03  -9.1179711073555769e-01  -9.0232523950599375e-01  -9.0162520092698872e-02  -8.8704164825884391e-01  -8.8041566117374181e-01  -8.9000896564767229e-01  -1.5070448682719939e-01  -8.6254301133545908e-01  -8.7430312832772195e-01  -8.8570861410512847e-01  -4.0357126931716482e-02  -7.7428470014327594e-02  -1.7814202703244887e-02  -2.9394363720361549e-01  -8.0936811141852338e-01  -2.0631601765084617e-01  -1.9791208782887657e-01  -8.9697696063658205e-01  -5.5071571467620622e-02  -7.3411636006000081e-01  -7.3369142798639131e-01  -4.7658762290804924e-01  -4.7431808613866139e-01  -1.0818794709741184e-01  -9.4226959852644704e-02  </DataArray> 
</PointData> 
</Piece>
</UnstructuredGrid>
</VTKFile>