<?xml version="1.0"?>
<VTKFile type="UnstructuredGrid"  version="0.1"  >
<UnstructuredGrid>
<Piece  NumberOfPoints="622" NumberOfCells="1116">
<Points>
<DataArray  type="Float64"  NumberOfComponents="3"  format="ascii">-6 -2 0  -6 2 0  6 2 0  6 -2 0  -2.8 0 0  -1.2 0 0  -5.500000000001853 -2 0  -5.000000000003705 -2 0  -4.500000000005556 -2 0  -4.000000000007409 -2 0  -3.50000000000926 -2 0  -3.000000000011112 -2 0  -2.500000000012963 -2 0  -2.000000000014814 -2 0  -1.500000000016665 -2 0  -1.000000000018516 -2 0  -0.5000000000203677 -2 0  -2.204547655537681e-11 -2 0  0.4999999999796305 -2 0  0.9999999999814779 -2 0  1.499999999983327 -2 0  1.999999999985175 -2 0  2.499999999987029 -2 0  2.999999999988882 -2 0  3.499999999990735 -2 0  3.999999999992589 -2 0  4.49999999999444 -2 0  4.999999999996293 -2 0  5.499999999998147 -2 0  6 -1.500000000001387 0  6 -1.000000000002774 0  6 -0.5000000000041616 0  6 -5.505595979116151e-12 0  6 0.4999999999958384 0  6 0.9999999999972258 0  6 1.499999999998613 0  5.500000000001853 2 0  5.000000000003705 2 0  4.500000000005556 2 0  4.000000000007409 2 0  3.50000000000926 2 0  3.000000000011112 2 0  2.500000000012963 2 0  2.000000000014814 2 0  1.500000000016665 2 0  1.000000000018516 2 0  0.5000000000203677 2 0  2.204547655537681e-11 2 0  -0.4999999999796305 2 0  -0.9999999999814779 2 0  -1.499999999983327 2 0  -1.999999999985175 2 0  -2.499999999987029 2 0  -2.999999999988882 2 0  -3.499999999990735 2 0  -3.999999999992589 2 0  -4.49999999999444 2 0  -4.999999999996293 2 0  -5.499999999998147 2 0  -6 1.500000000001387 0  -6 1.000000000002774 0  -6 0.5000000000041616 0  -6 5.505595979116151e-12 0  -6 -0.4999999999958384 0  -6 -0.9999999999972258 0  -6 -1.499999999998613 0  -2.796147781337886 -0.07841371226233997 0  -2.784628224322852 -0.1560722576115546 0  -2.765552268586196 -0.2322277418021561 0  -2.739103626009626 -0.30614674589063 0  -2.705537011479457 -0.3771173894593519 0  -2.665175689843037 -0.4444561864141836 0  -2.618408362691456 -0.5075146273293722 0  -2.565685424950688 -0.5656854249477874 0  -2.507514627332613 -0.6184083626887972 0  -2.444456186417533 -0.6651756898407991 0  -2.377117389462776 -0.7055370114776264 0  -2.306146745894456 -0.7391036260080417 0  -2.232227741806235 -0.7655522685849585 0  -2.15607225761588 -0.784628224321992 0  -2.078413712266957 -0.7961477813374315 0  -2.000000000003407 -0.7999999999999998 0  -1.921586287739523 -0.7961477813380696 0  -1.843927742389945 -0.7846282243231506 0  -1.767772258198879 -0.7655522685865098 0  -1.693853254109962 -0.7391036260098718 0  -1.622882610540873 -0.7055370114795768 0  -1.555543813585629 -0.6651756898429115 0  -1.49248537267008 -0.6184083626910072 0  -1.434314575051535 -0.5656854249500112 0  -1.381591637310384 -0.5075146273316149 0  -1.334824310158267 -0.4444561864161359 0  -1.294462988521423 -0.3771173894609975 0  -1.260896373990956 -0.3061467458920351 0  -1.234447731414138 -0.2322277418032578 0  -1.215371775677287 -0.156072257612254 0  -1.203852218662147 -0.07841371226267954 0  -1.203852218662115 0.07841371226235888 0  -1.215371775677132 0.156072257611478 0  -1.234447731413795 0.232227741802127 0  -1.260896373990353 0.3061467458905811 0  -1.294462988520456 0.3771173894591898 0  -1.334824310156812 0.444456186413959 0  -1.381591637308413 0.5075146273292139 0  -1.434314575049147 0.5656854249476236 0  -1.492485372667197 0.6184083626886415 0  -1.555543813582104 0.6651756898405565 0  -1.62288261053673 0.7055370114773629 0  -1.693853254105125 0.7391036260078683 0  -1.767772258193396 0.7655522685848468 0  -1.84392774238373 0.7846282243219146 0  -1.921586287732977 0.7961477813374253 0  -1.999999999996558 0.8 0  -2.078413712260516 0.7961477813380661 0  -2.156072257610207 0.7846282243231205 0  -2.232227741801178 0.7655522685864928 0  -2.306146745890059 0.7391036260098632 0  -2.377117389459098 0.7055370114795929 0  -2.444456186414405 0.6651756898428894 0  -2.50751462732998 0.6184083626909587 0  -2.565685424948549 0.5656854249499272 0  -2.61840836268981 0.5075146273313792 0  -2.665175689841831 0.4444561864159886 0  -2.705537011478692 0.3771173894607835 0  -2.739103626009108 0.3061467458918818 0  -2.76555226858589 0.2322277418031643 0  -2.784628224322724 0.1560722576122001 0  -2.796147781337853 0.07841371226267957 0  0.6720367661319522 0.1312687487860887 0  -4.389489086394485 0.3544472233398538 0  -3.816221554046232 -0.6097988664512611 0  -3.552726516474419 0.9342959806851625 0  -0.2536610443052337 0.8162373554653355 0  -0.1843238977799138 -0.6649951410982842 0  -3.613359951620445 0.1086570650978273 0  -3.146954163409593 -1.074378179335012 0  -0.4255266515582625 0.07734891565364931 0  -0.9413731612925856 1.168014724254929 0  -2.947764053183577 1.200029094390044 0  -0.8319852757411681 -1.058626838707328 0  2.675418990747819 -1.137325591670363e-12 0  -2.602010642259726 -1.287560129290477 0  -2.334401622060699 1.335006108940604 0  -1.524718496628401 1.32890816230333 0  -1.369813829148039 -1.26145150481762 0  -3.294065651892671 -0.4630240940010318 0  -2.072749204569071 -1.388981302138359 0  -0.7546165313921411 0.5601792161340381 0  -3.224879719581335 0.4382689715877901 0  -0.7073137361349826 -0.4625305410752652 0  4.326242945813966 0.3262429458150917 0  -3.187880061217201 0.07437712177460168 0  -2.94792024259867 0.7030255657465158 0  -2.678809277907896 0.9152683582887104 0  -4.911626141576894 -0.5700186648601188 0  -2.980647654587299 -0.5685006168686053 0  -2.769438919323564 -0.8202775213660614 0  -1.936950121013948 1.220669938589229 0  -0.8971643766260747 0.2762459428874499 0  -0.8760878018253068 -0.06836412137772707 0  -1.086827485441145 0.6772548942594016 0  -1.31355927028917 0.8808768148414213 0  -1.034266382739347 -0.5912381576649568 0  -1.241594139118264 -0.836771920085274 0  1.667161185638911 -0.6367996576268693 0  1.778189842800902 0.7191719841256095 0  -3.065106827511819 -0.266795371500425 0  3.714311277362231 -0.7275465302492842 0  -1.728329421201519 -1.09954751473283 0  4.870629493137888 -0.7325040699186681 0  -3.024707894719303 0.2567561910603656 0  -4.375540207252226 1.228935704312058 0  -2.272077148001781 -1.086192861256262 0  3.351408248797803 0.9175227128129597 0  -5.141847419540732 0.8091901960109126 0  0.5769368286199241 1.111816231125821 0  0.7411482978492124 -1.079569101289617 0  -1.074013749991219 0.430231207546053 0  -1.04664573441257 -0.3358382377487088 0  -2.439195336951085 0.9224778883059374 0  -2.902607676587358 0.4360473765597399 0  -1.629450174302152 1.035617385691805 0  -2.146859933125513 1.032375363966426 0  2.587625196444542 -0.9999926061845814 0  -2.529286802957126 -0.8830616815739111 0  -1.493798157676768 -0.8794705728517196 0  -1.932158132383022 -1.026681566564148 0  -4.09956359341904 -0.1372485582942864 0  5.055802064425553 1.050933510837308 0  -4.413659685984891 -1.207626391697488 0  -4.961411026474009 0.1201902955685026 0  -3.771151641156835 -1.303594976371997 0  -3.001321503506133 -0.04919177107285733 0  -3.881733605683001 0.5124517634812003 0  -0.1971627317996802 -1.336445372382849 0  -2.742825060181767 0.6732573903735507 0  2.520439429199979 1.129372838786189 0  -1.026326428668429 0.1384273198437734 0  -2.779290004861729 -0.5844691722665721 0  -2.895095740820851 -0.4261289730972082 0  -1.275682076193407 0.6630703172777138 0  0.1045291701958869 0.3433373435296472 0  5.175560481258801 0.0608563229178163 0  -1.211574424201636 -0.5847362589868093 0  -1.85847006217035 1.007917631940711 0  4.152535916385823 1.131901130662082 0  -1.04878257200685 -0.1253529988863012 0  1.432836501626023 0.05634449574318775 0  3.560672936003603 0.01188897172456759 0  -3.351823698389408 -0.1821329582635926 0  -5.145153363200735 -1.259166339382508 0  0.03473693330309885 -0.1724947236036572 0  -4.377830921337186 -0.6172564090242229 0  -0.3943750728122595 1.410897156959435 0  -1.661073679471639 -0.9342065000197183 0  -1.49086536677686 0.8331714487926741 0  -2.584486130952032 0.7871482690034864 0  4.270535884593893 -1.259607924744415 0  -1.757417028085795 -1.505182186951191 0  -3.430586920998477 1.425579221231371 0  -2.917598827418652 -0.2298465409534677 0  -2.328978331116049 -0.9300959620317677 0  -2.148543000691344 -0.9751580214451921 0  1.002654111360038 -0.4521702885594788 0  -4.628651824080903 -0.1127998710567241 0  -2.948904386702482 0.1555943115410545 0  0.4165242577134774 -0.5629432649478633 0  -3.698137692471105 -0.3173027948676715 0  -3.491400684461791 -0.7926319721650269 0  -0.3844454817728994 0.4680628696134375 0  -3.207830713508533 0.9778749990559993 0  3.229909751065535 -1.326302454776001 0  5.330007715336748 -1.312905173261894 0  -2.649214054100534 -0.713314536278899 0  1.342022964818772 -1.328315248672686 0  -2.556460939068198 1.202372762828344 0  -0.3497819755044588 -0.3080427614060888 0  -4.928440909495523 1.387622767511967 0  1.309170811945155 1.337467055109531 0  -1.352031940181449 -0.7151198948590243 0  -0.6132855723904642 0.9519045895123004 0  4.266838388406324 -0.3707357390867402 0  -3.834389788310238 1.371594798941152 0  -1.187890214580146 0.4851427123079557 0  -1.109118888029193 0.3185947354467283 0  0.1837819401738013 1.234799661476361 0  1.108165254659559 0.6237223548284967 0  -0.5266600156584522 -0.8113991260886402 0  -4.643822083543982 0.7834094684931707 0  -1.146235204666366 -0.4027330721405781 0  2.049029845992713 -0.2664662499985428 0  2.002665761665898 -1.328912351029848 0  -1.678783505586872 0.8978832065736417 0  -2.049499525232052 0.9483890761590005 0  -2.229972236535132 0.9181006323151361 0  -3.033763529945482 -1.54240494280775 0  -3.562344364746847 0.5622550957224539 0  -5.524396842903405 -0.2709714867672603 0  -0.9710982764034376 -1.549038578476423 0  3.058819320130555 -0.5375106252795963 0  -4.170365230099585 0.7342553699229977 0  -1.045878746461381 -8.187420622554697e-05 0  -1.864822945411764 -0.9219031104673102 0  -0.6251005091687033 -0.2120650512195049 0  2.317562622406059 0.4886417799113238 0  -0.6674371191466613 0.1483993095055008 0  -2.705757882979874 1.609712312948224 0  
[...]
<PointData  Scalars="f_24"> 
<DataArray  type="Float64"  Name="f_24"  format="ascii">9.9999997341657065e-01  9.9999997341657065e-01  9.9999997341657065e-01  9.9999997341657065e-01  4.3755487428745243e-01  8.5313268093742478e-01  9.8402473049942463e-01  9.6836344042264677e-01  9.5244996726568776e-01  9.3770073124587328e-01  9.2250708905771417e-01  9.0019356215019830e-01  8.6504646665939677e-01  8.0299984297196270e-01  7.6338936843509564e-01  8.7155610315404342e-01  1.0290873391496786e+00  1.1232567316443773e+00  1.1600857909229854e+00  1.1605766649200848e+00  1.1486764403279059e+00  1.1328719704581605e+00  1.1164489422502115e+00  1.0992797497544886e+00  1.0835018451156508e+00  1.0658414958742248e+00  1.0502430054820637e+00  1.0325499333318087e+00  1.0170725926827189e+00  9.9999997341657065e-01  9.9999997341657065e-01  9.9999997341657065e-01  9.9999997341657065e-01  9.9999997341657065e-01  9.9999997341657065e-01  9.9999997341657065e-01  1.0168239177033067e+00  1.0327236985818582e+00  1.0502932205573499e+00  1.0656077838894784e+00  1.0831922229970876e+00  1.1002787554990157e+00  1.1158419538515016e+00  1.1328611938271120e+00  1.1489536415167962e+00  1.1605641532993465e+00  1.1607392228178344e+00  1.1254470914008243e+00  1.0335022382443555e+00  8.6016514646896003e-01  7.8854506408446079e-01  8.0457454991826904e-01  8.5962592368530266e-01  8.9835499840428223e-01  9.2120547928413554e-01  9.3637788425830892e-01  9.5222700561746154e-01  9.6787576706449419e-01  9.8371936621309253e-01  9.9999997341657065e-01  9.9999997341657065e-01  9.9999997341657065e-01  9.9999997341657065e-01  9.9999997341657065e-01  9.9999997341657065e-01  9.9999997341657065e-01  4.4013997922161890e-01  4.4876245903031858e-01  4.4481068438616561e-01  4.6097332908073724e-01  4.5843759532456613e-01  4.9541137167641708e-01  4.8342056746865941e-01  5.3066614518325328e-01  5.1465111845774913e-01  5.6800635997317084e-01  5.7364089581342592e-01  6.3173785761436441e-01  6.5543607140977722e-01  6.9480207659747273e-01  7.1213324615676477e-01  7.1732281116831875e-01  7.0030578599522320e-01  6.6034889513072903e-01  6.1565574983942006e-01  5.7950044539999757e-01  5.6831009597521509e-01  5.7766249516970258e-01  6.0736673574797317e-01  6.4482462055693501e-01  6.8683970627326274e-01  7.2754706873681496e-01  7.6424604995447143e-01  7.9598739284642683e-01  8.2023083949672004e-01  8.3826888676067179e-01  8.4978723381681387e-01  8.4957343749238068e-01  8.3847523775436961e-01  8.2085218902449730e-01  7.9558772388824550e-01  7.6451244595756929e-01  7.2736089723157049e-01  6.8639074969407798e-01  6.4432990604106344e-01  6.0586771491256319e-01  5.7660759906928838e-01  5.6746725973316259e-01  5.8031357162793606e-01  6.1636304301246192e-01  6.6281777839249867e-01  7.0141148946077936e-01  7.2024071375126375e-01  7.1843136933842378e-01  6.9067520894840229e-01  6.7108200643140392e-01  6.2967652917856065e-01  5.7709472199772960e-01  5.2764445405713112e-01  5.4758947973811778e-01  4.8371455579699468e-01  5.0193859052248724e-01  4.8417352129728097e-01  4.6924506059756071e-01  4.5261004731382032e-01  4.6151649432787495e-01  4.4268474260349094e-01  4.4225723251559967e-01  1.1603945302893166e+00  9.4289759632929715e-01  9.2092871913327601e-01  9.1864363895788936e-01  1.0300383361190417e+00  1.0473418509796262e+00  8.9532562914118019e-01  9.1068870688444425e-01  1.0036653268361286e+00  7.4236715395875941e-01  9.0316207525228964e-01  8.0586969496967553e-01  1.1099561066110066e+00  8.6831569954825083e-01  8.1732929997813342e-01  5.8114009476004547e-01  5.5060643609889248e-01  8.7085581315734284e-01  7.6981596912570138e-01  8.8522765813577620e-01  8.5475404544409983e-01  9.0953898188295856e-01  1.0554920496814153e+00  8.1263098087685282e-01  8.4149972616022461e-01  8.2181660837756809e-01  9.6311035809756418e-01  8.1274278141977485e-01  8.1813160799478390e-01  6.6619224187903403e-01  8.7389924126183582e-01  8.9444128965732483e-01  7.3155644300201972e-01  5.4684780235214447e-01  7.7580865342703798e-01  5.9978306577772511e-01  1.1426594883745269e+00  1.1389465243692518e+00  7.7689297503977339e-01  1.0757462884957922e+00  5.5294558856895504e-01  1.0374753161972046e+00  7.5538199996872790e-01  9.4761186999944003e-01  7.3535800548978925e-01  1.0878190433544055e+00  9.7127166964982581e-01  1.1567283768238672e+00  1.1586463532515516e+00  8.0100642608580874e-01  8.2826861999558610e-01  7.2698041692922821e-01  7.3727975202412488e-01  5.1936855107634505e-01  6.9196620012853238e-01  1.1129771232505337e+00  7.4782818141052532e-01  5.1536745405264450e-01  6.3292954157502390e-01  9.2887454641216438e-01  1.0313083484996468e+00  9.4923854010628050e-01  9.6408389400127725e-01  9.3181803368473526e-01  7.1232530791588422e-01  9.2216516623984057e-01  1.0644845141727610e+00  7.5059887011520587e-01  1.1152950094271166e+00  8.6086352803724764e-01  7.2233070395486731e-01  7.2431646309263864e-01  6.6135487148687877e-01  1.1063930433596352e+00  1.0273460058749366e+00  7.1302385941954971e-01  6.1004040979451590e-01  1.0611369279793379e+00  8.5860064681967196e-01  1.1496478872237244e+00  1.0808093821872558e+00  8.5977926741607835e-01  9.7237527134073209e-01  1.0966736514048410e+00  9.4419545872971977e-01  1.0190564605613128e+00  5.3918282901622894e-01  5.3277900860362104e-01  7.2398079851125863e-01  1.0573645329310926e+00  6.9692576730619216e-01  9.2208940528075867e-01  6.7085239324618617e-01  7.0026341213685372e-01  6.7904653977478846e-01  1.1602634345439096e+00  9.5176841915338817e-01  6.7897168734525259e-01  1.1424372286271083e+00  9.0635140762911737e-01  9.1139274365719936e-01  1.0029966117054285e+00  9.0726220593765183e-01  1.0918913456117645e+00  1.0223104762637663e+00  7.1779400898112933e-01  1.1516624808515576e+00  8.4993548713271705e-01  1.0167048832132706e+00  9.6531314144967106e-01  1.1530800760832254e+00  6.1362426761013034e-01  9.1542801236613602e-01  1.0574539429480321e+00  9.3274699365061298e-01  7.5351856070290990e-01  8.1825063343519933e-01  1.1256426138893501e+00  1.1567951681384163e+00  9.5081402026885242e-01  9.5425994336446385e-01  7.8902469720036672e-01  1.1302625337667742e+00  1.1322228492974453e+00  5.5517966671003316e-01  6.6675928216361058e-01  6.7246769309217402e-01  9.0670291076805953e-01  9.0462419379072911e-01  9.8396031644406989e-01  8.1980787699095803e-01  1.0973900432021768e+00  9.3727282436483084e-01  8.6479723026115152e-01  6.2865968892350033e-01  9.5046701570013437e-01  1.1217024346343172e+00  9.4142276610379150e-01  8.8046954184767778e-01  1.1342469998907865e+00  7.1641181148455702e-01  6.5516139175180654e-01  9.0025235472172216e-01  8.8711294132105434e-01  9.8578099385220208e-01  1.1132943634422445e+00  7.7352544298097381e-01  8.8630066532903018e-01  7.8124963037666240e-01  9.2002250731479851e-01  5.9167286132843844e-01  9.1858313018783699e-01  6.4114979233740810e-01  8.0553957129739950e-01  8.3550633867914748e-01  1.1168259999132386e+00  1.0218274393819027e+00  8.7960371928879066e-01  1.0970306926345113e+00  8.5457077047463259e-01  9.8285748082095803e-01  8.0585735926441315e-01  1.1468769070027516e+00  1.0780546383668279e+00  8.6581648245802800e-01  8.8348644484063266e-01  6.7001405738698216e-01  8.9258449587120359e-01  1.0204520951910852e+00  6.5970746009833137e-01  6.6063895519703664e-01  5.4988462494084245e-01  8.0949970192172649e-01  1.1028109280936551e+00  8.5347282763255117e-01  7.4054912516192362e-01  9.7839588709950920e-01  5.5481262533037912e-01  6.0427046465426415e-01  6.2121319827618404e-01  6.1476971300205663e-01  1.0188783403841515e+00  9.2919975879877081e-01  1.0700705570603424e+00  6.6149274000849723e-01  6.6766606288468422e-01  9.5678766116469427e-01  1.0445572051554226e+00  6.5686484223705732e-01  6.4751170340680853e-01  6.6013847010734883e-01  6.1119862358945642e-01  5.8300356503355844e-01  6.6485830385007039e-01  1.0750872812190153e+00  1.0398021722276987e+00  9.3682904727502059e-01  9.0183138606267599e-01  8.3582028902434158e-01  9.2180003664042853e-01  4.9170934883026635e-01  8.9473243308036554e-01  6.0827668208659669e-01  5.5454589178871050e-01  8.3429806859594657e-01  9.2985212543704687e-01  7.8839889315714229e-01  1.0398156866094737e+00  7.0847289340190200e-01  7.8376367933825219e-01  1.1613583406055812e+00  1.1072522992617266e+00  9.5972047003375638e-01  7.4890698263506961e-01  7.4906005308875956e-01  8.4860757742134185e-01  1.1590101212371382e+00  6.9526666369234047e-01  6.6448434746914564e-01  6.4774472845185627e-01  1.1277970510252171e+00  8.9995405431786257e-01  6.6015231575611755e-01  5.8671409675261943e-01  5.9600034358304899e-01  9.4248337030048401e-01  9.4231766765376934e-01  1.1557134794628752e+00  6.0688052571447793e-01  8.5291568320912059e-01  6.0413117147264650e-01  9.0026761097949226e-01  8.4779764667767377e-01  8.0908041195193259e-01  9.5921291262508790e-01  1.1610909880305571e+00  6.3296508504174376e-01  1.1489532298559642e+00  5.7554920367461404e-01  1.1359155553248053e+00  7.2973051299696323e-01  8.4795069679065804e-01  9.5867062325776475e-01  1.0418530898711051e+00  6.1764961481373615e-01  9.0589787807274513e-01  6.6459864429840343e-01  9.8549671306093978e-01  1.1126052270885451e+00  6.0564024263791560e-01  7.0800233595602913e-01  6.1902665428568149e-01  9.8730614176689380e-01  9.8073102183402061e-01  7.9052907157954444e-01  1.0381673374670457e+00  6.6136757708457750e-01  8.4191014174779866e-01  5.6211936082188152e-01  9.3542602228305038e-01  6.4621409745543046e-01  6.6610899860014272e-01  9.3144589718296944e-01  6.4828304894280764e-01  5.6275414168840177e-01  6.4444707625596809e-01  4.8028478138983116e-01  8.2331505933475657e-01  5.7658734191489269e-01  1.0514739904736026e+00  6.4691345385839905e-01  5.0553559660851632e-01  5.8101832609142978e-01  8.5805748618159916e-01  8.0120839752610029e-01  9.2667884727823235e-01  7.4409290946718720e-01  1.0659583437193834e+00  1.0472476296823343e+00  7.9795088545077597e-01  6.4369973914865442e-01  8.8321509900895723e-01  6.4146311490269792e-01  8.6033521643625233e-01  8.8471366707955368e-01  8.1306498643493241e-01  8.3593308271711364e-01  7.3814602408124186e-01  1.1207310389907399e+00  9.3151335886041597e-01  8.4525372741856442e-01  1.0531372466891009e+00  9.2898725224382495e-01  9.1532899958419012e-01  8.4142952451237762e-01  7.8981252397639146e-01  1.0670118715859356e+00  9.4142766041593684e-01  7.2069020776342596e-01  1.0139396398552636e+00  9.6592232892317298e-01  8.5490404337083969e-01  9.7579262466983352e-01  1.1600379921564665e+00  8.1723981975863957e-01  8.5505930806489638e-01  7.2256166573605851e-01  1.0585032161177990e+00  7.2131813929967914e-01  8.0284894400355644e-01  9.2109025412090595e-01  1.0124355745831883e+00  6.4442903677403662e-01  7.6460539094365432e-01  1.1279190227425417e+00  8.5812402061838311e-01  9.2912436562939793e-01  1.1122909389498041e+00  5.8565489237180968e-01  1.0147344882328582e+00  1.1509749198568087e+00  6.3400062714845673e-01  6.2163070225460182e-01  9.5412725205272275e-01  7.0279312424579110e-01  7.2416380659298973e-01  5.6517858370881313e-01  6.2294790535292011e-01  1.1428811992021528e+00  1.0963783086249688e+00  1.0844840150431234e+00  1.1026706844653791e+00  9.5865271838033483e-01  1.0864527621506268e+00  9.0395488770142296e-01  9.1086342514388363e-01  9.5902827262162837e-01  9.1965047904841823e-01  9.9727782902041773e-01  9.8105412369592693e-01  8.8468104853535912e-01  1.1023432975637328e+00  1.1493734249210523e+00  8.8817040757736498e-01  1.1576327615136941e+00  9.5358637043522443e-01  1.1512053333857231e+00  1.1245060762820993e+00  9.7756645230295847e-01  8.6517475470070859e-01  9.6965335606852532e-01  1.0513013060500402e+00  7.8055260943495164e-01  1.0991291114502519e+00  1.1290640520471740e+00  7.4528196356356813e-01  1.1584464179476346e+00  5.5447774370391223e-01  9.4013412504301608e-01  1.0454916453309566e+00  5.8302455050783586e-01  9.5315368428007663e-01  1.0133314545476328e+00  1.0582576313370642e+00  1.1223492723169846e+00  1.1423994621440161e+00  9.4956004111430237e-01  1.0316037833962028e+00  1.1447988727460938e+00  6.6954403174704358e-01  5.1734640630952422e-01  1.1082053737534481e+00  9.1647084857047956e-01  8.9509631530347278e-01  1.0692962666922199e+00  8.0802266725005900e-01  8.6961455270041355e-01  7.5376116534246762e-01  8.4024918893528877e-01  9.0571061237708850e-01  9.7864379505836863e-01  6.5246757878993766e-01  9.3490295116876543e-01  9.4611315551312047e-01  6.5803956474240100e-01  9.6712451991063075e-01  1.0434769874791208e+00  6.6139090825933122e-01  1.0713215462097456e+00  9.1927885346143345e-01  8.8478263126184287e-01  6.7785947291183746e-01  8.8818108933082074e-01  9.3796962314749277e-01  1.0434846799952910e+00  7.6798659215322052e-01  7.6563596264747058e-01  5.8227204991420689e-01  8.1079509045801590e-01  6.9199040707948889e-01  1.1438060736444811e+00  8.7822436482594868e-01  7.4770782272118608e-01  7.3080487874251465e-01  5.8485190404484666e-01  9.4573887815427859e-01  1.0756841185340300e+00  8.6488186832192282e-01  5.6847857797124890e-01  7.8184502895721475e-01  9.4506325371876643e-01  9.2712688283148648e-01  8.1014053301932054e-01  1.0118025616685151e+00  9.8879183923308034e-01  9.7337989299878236e-01  1.0915686400260884e+00  1.1551543593820857e+00  1.1478997626311325e+00  1.0260284307627794e+00  9.8868996513742546e-01  1.1096690435327241e+00  1.1431723705851426e+00  9.1322641451508046e-01  1.1547338654746313e+00  8.9906873125809406e-01  9.5478165894685274e-01  8.8904528067176880e-01  6.5247407558238779e-01  1.0916911798315518e+00  6.9294204320415254e-01  6.7126377379717006e-01  9.4091073747554876e-01  1.0290795987043659e+00  9.1102166296448439e-01  1.1578512212043117e+00  1.1582647368885535e+00  9.2365861242640934e-01  1.1590632098662841e+00  1.1136193188058801e+00  1.0723392337441717e+00  7.8707619909776660e-01  1.0853943021252039e+00  9.9471714220798158e-01  5.0261580338664125e-01  1.1433892054522155e+00  7.6161843623807957e-01  1.0698722549723672e+00  1.0097189061660963e+00  7.8537669939823795e-01  7.6353438718901678e-01  8.4321454499037218e-01  9.2144387720546983e-01  1.0558392058595021e+00  6.1106019008046752e-01  1.1507199609443657e+00  8.7591174020874829e-01  9.6227334445673185e-01  5.5243881315856214e-01  9.4712113088542393e-01  5.5787352629745646e-01  5.5896818894392108e-01  9.6303388192979933e-01  1.1013458473510851e+00  1.0899426298698078e+00  8.7383467709103091e-01  1.0104399954229144e+00  1.0652000448053764e+00  1.1421580442999906e+00  8.5619499298832014e-01  6.4674276018873866e-01  9.0765134596569685e-01  9.0818046846270273e-01  6.3306067014594058e-01  6.6442573984387854e-01  1.0634575581152870e+00  6.8692786929482064e-01  9.9088245648667084e-01  9.3975502632896957e-01  7.7452814714914653e-01  9.1485625751432398e-01  9.7036616831411526e-01  7.6984633547404502e-01  7.0750004561899371e-01  9.8953702004846611e-01  1.0532889330942361e+00  1.1209178696026931e+00  8.8844017563461297e-01  9.3051309383381964e-01  8.5548332687004547e-01  9.7451120877782405e-01  8.2654971899723650e-01  7.2129300607695512e-01  9.6777105320340007e-01  </DataArray> 
</PointData> 
</Piece>
</UnstructuredGrid>
</VTKFile>