<?xml version="1.0"?>
<VTKFile type="UnstructuredGrid"  version="0.1"  >
<UnstructuredGrid>
<Piece  NumberOfPoints="406" NumberOfCells="722">
<Points>
<DataArray  type="Float64"  NumberOfComponents="3"  format="ascii">-6 -2 0  -6 2 0  6 2 0  6 -2 0  -2.8 0 0  -1.2 0 0  -5.500000000001853 -2 0  -5.000000000003705 -2 0  -4.500000000005556 -2 0  -4.000000000007409 -2 0  -3.50000000000926 -2 0  -3.000000000011112 -2 0  -2.500000000012963 -2 0  -2.000000000014814 -2 0  -1.500000000016665 -2 0  -1.000000000018516 -2 0  -0.5000000000203677 -2 0  -2.204547655537681e-11 -2 0  0.4999999999796305 -2 0  0.9999999999814779 -2 0  1.499999999983327 -2 0  1.999999999985175 -2 0  2.499999999987029 -2 0  2.999999999988882 -2 0  3.499999999990735 -2 0  3.999999999992589 -2 0  4.49999999999444 -2 0  4.999999999996293 -2 0  5.499999999998147 -2 0  6 -1.500000000001387 0  6 -1.000000000002774 0  6 -0.5000000000041616 0  6 -5.505595979116151e-12 0  6 0.4999999999958384 0  6 0.9999999999972258 0  6 1.499999999998613 0  5.500000000001853 2 0  5.000000000003705 2 0  4.500000000005556 2 0  4.000000000007409 2 0  3.50000000000926 2 0  3.000000000011112 2 0  2.500000000012963 2 0  2.000000000014814 2 0  1.500000000016665 2 0  1.000000000018516 2 0  0.5000000000203677 2 0  2.204547655537681e-11 2 0  -0.4999999999796305 2 0  -0.9999999999814779 2 0  -1.499999999983327 2 0  -1.999999999985175 2 0  -2.499999999987029 2 0  -2.999999999988882 2 0  -3.499999999990735 2 0  -3.999999999992589 2 0  -4.49999999999444 2 0  -4.999999999996293 2 0  -5.499999999998147 2 0  -6 1.500000000001387 0  -6 1.000000000002774 0  -6 0.5000000000041616 0  -6 5.505595979116151e-12 0  -6 -0.4999999999958384 0  -6 -0.9999999999972258 0  -6 -1.499999999998613 0  -2.776753453941174 -0.1914525314286965 0  -2.708364820523325 -0.3717785376335722 0  -2.598808598538216 -0.5304981265911284 0  -2.454451797386757 -0.65838709271366 0  -2.283683909636528 -0.748012994147384 0  -2.096429344207466 -0.7941670992780535 0  -1.903570655798842 -0.7941670992788195 0  -1.716316090368095 -0.7480129941491368 0  -1.545548202616307 -0.6583870927157747 0  -1.401191401463757 -0.530498126593356 0  -1.291635179477527 -0.371778537635196 0  -1.223246546059047 -0.1914525314295925 0  -1.223246546058803 0.1914525314286035 0  -1.291635179476594 0.3717785376334188 0  -1.401191401461634 0.5304981265909601 0  -1.545548202612898 0.6583870927134221 0  -1.716316090363093 0.7480129941472402 0  -1.903570655792394 0.7941670992780367 0  -2.096429344201276 0.7941670992788055 0  -2.283683909631911 0.7480129941491347 0  -2.454451797383697 0.6583870927157729 0  -2.598808598536385 0.530498126593196 0  -2.70836482052258 0.3717785376349917 0  -2.776753453940975 0.1914525314295042 0  0.4588466633941945 0.2704149791022056 0  -4.424312812173863 0.2760319703992994 0  -3.803977598762586 -0.6841584599595646 0  -0.1330968762779425 -0.6798763971615133 0  2.451109587541276 3.169800318630399e-13 0  -3.563610936250569 0.5929994091167295 0  4.204753319582647 0.2820669554523581 0  -0.4390897559348154 0.6178095532273566 0  -3.041446812595122 1.175550440315544 0  -0.9622132806516797 1.132103015222783 0  1.069493318942931 -0.773608156980569 0  -4.924330687080279 -0.7127064269610045 0  -3.024693497948964 -1.195179289656404 0  -0.9648749555625579 -1.256854520022574 0  -3.443624282349383 -0.2044158249759613 0  -0.5611500783757608 -0.1747080110423833 0  1.60270880116926 0.7487034276124258 0  3.488352576142236 -0.8228939860777884 0  4.816375011670135 -0.8163750116689444 0  3.243628045085357 0.8578172796997985 0  -4.228632884234073 1.228069101636678 0  -2.365220384435482 -1.356128547810356 0  -1.637465979486354 1.3571687267915 0  -1.642380978561139 -1.359365080147485 0  -2.362988915989869 1.356737096243695 0  -5.134120367293631 0.8356299802910161 0  2.077496878467794 -0.9514080034522553 0  4.960859291178299 0.9608592911785537 0  0.3293120056474302 1.148965409695154 0  -5.157560560414062 0.09447106214747865 0  -3.14779387667392 -0.6330563038825547 0  -3.148134455585257 0.4354299640428653 0  -0.8464439673630421 0.4159277415926296 0  -0.9918125625721008 -0.7191748422889824 0  -4.355349213295776 -1.234510499778242 0  1.582074659164868 -0.06850205959954866 0  2.400584045214166 1.204278622181321 0  5.102831660739063 0.03453404176596848 0  4.083259768981113 1.154272958349666 0  -3.992394834362243 -0.1621022234411988 0  0.4290302718942113 -1.225465289645401 0  -3.681487986394671 -1.310544246656267 0  -3.640289698916164 1.187023654838123 0  0.468851680921228 -0.447055967952278 0  3.315209904217932 0.05667935655546536 0  -2.541160649745046 -1.046980928586996 0  -1.45196684542695 1.044189935346116 0  -2.000844595891861 -1.207983108473125 0  -1.453092202970521 -1.061139264918894 0  -2.000050543938391 1.207806685704176 0  -2.548033154566413 1.04418993534851 0  4.13054585796652 -1.232871249381608 0  -0.3301617095463629 1.221692405319566 0  -0.2880491989587189 -1.359626628407983 0  -0.0758941643813178 0.132275811829787 0  2.826389221580753 -1.233168480096227 0  -2.922070412327736 0.7575752117792038 0  1.003070890178416 1.271347915034201 0  -5.319521816151902 -1.310543894393663 0  -1.070407062963812 0.7877698545098388 0  -4.562499863038985 -0.2302396981426722 0  -3.164226661545047 0.07179577787350272 0  -0.9091377812900333 0.132454654016971 0  4.116029045943655 -0.4851826871817362 0  5.316659189209927 -1.316659189208741 0  -0.9498828454673396 -0.4149758979014553 0  -4.037769805263969 0.6896174350675625 0  1.431664772855882 -1.327784137638992 0  -3.646693623568034 0.1600006358878044 0  -2.878371345483476 -0.7910345833001061 0  1.062603041385242 0.2894765870627741 0  -0.547955103783681 0.1635272504420374 0  -4.804809838419659 1.41016301576038 0  -3.042895319571192 -0.3694931303482478 0  -4.59252578392403 0.792267765362792 0  2.823271260730033 -0.5472430318427347 0  -4.28575390662405 -0.7521491832384866 0  -0.5524005545121191 -0.9037367558558163 0  1.815219025072439 1.388812135783969 0  -1.288398729718543 -0.8178399475601057 0  -5.424388493366639 1.35375165044146 0  -2.256991952837567 -1.049538527273222 0  -1.739586738723494 -1.052327527873255 0  -1.738827359988536 1.050180627239116 0  -2.257795730428802 1.049701225145305 0  -0.62222340523776 -0.5483611729237363 0  2.065188519029698 0.5424877383589943 0  0.1055865106318892 0.7347782870471022 0  1.013082573993895 -0.2061877611231605 0  -5.428323520618333 -0.4386412085227075 0  5.374041502384443 -0.5304401760993408 0  3.435185060219232 -1.377658617395091 0  -3.302377238490527 0.8841390072780534 0  -0.9902123298072768 -0.124175295282554 0  0.7186958547669859 0.8724503317343631 0  2.941237214953417 1.390391532351976 0  4.708037787864423 -1.340276032051348 0  5.395029680982659 1.395029680983341 0  3.591022587550188 1.348260650408605 0  2.759385971589342 0.4857447325740718 0  -0.6832705231418494 0.8879387563573758 0  5.437781298507145 0.5981501503262471 0  -2.698603003287285 1.617130043745112 0  -3.463358189947519 -1.013588318179017 0  1.710866040171871 -0.6978716337870808 0  3.642182982762737 0.4555704362064124 0  -2.699802128031161 -1.618310703146212 0  -1.3020054856637 1.619819977935582 0  -2.000000000004996 -1.566396763829867 0  -1.999999999994794 1.566396763830688 0  -1.247812462071684 -1.595232739507426 0  4.59429106759859 1.420052135572917 0  0.9448382581152466 -1.440259145469251 0  -0.116376100998861 -0.2606209011258676 0  -4.774521510507792 0.4245390872783272 0  -2.983910172370106 -0.1208000607277856 0  -3.353983741142061 1.576062863985777 0  -5.473352579109997 0.4917619255280954 0  -4.828650470275986 -1.493148538517745 0  4.639973657165532 -0.2833178611094909 0  -2.660279445404468 0.7699932347178977 0  -1.335045190775955 0.7744876666923373 0  -3.395669172689978 0.2584951122361346 0  2.279110606119369 -1.465899541383697 0  4.734317729212562 0.4520963557364723 0  -0.6334913028224612 1.584213953723378 0  2.121854101359879 -0.4289611127787379 0  -3.474459720833238 -0.4977581316675216 0  -1.066539898844178 0.3411379476537602 0  -3.361849707555382 -1.611428512420182 0  -4.099039818938317 0.3306400369415774 0  -2.935324777364672 0.354721898811665 0  -3.973578595052027 1.482940358734671 0  3.784450148635689 -0.0702780807301525 0  -1.191348122671212 -0.5614501189722798 0  -2.838672605956353 -0.5493179047027598 0  -1.184983441257359 0.5617520886612424 0  -2.811184099847449 0.5574240755049175 0  0.2702752249355158 -0.8003643570420809 0  -0.6945947797857237 -1.593893965175195 0  0.001175881878679056 1.504521009023778 0  0.6072931735145096 1.501814722697789 0  -3.991896293645949 -1.047264188412552 0  -3.734097395159253 -0.3261671578666079 0  -5.539652387691843 -0.8857154182585802 0  -4.395061924111849 1.563293728588296 0  0.2258327611651416 -0.08745142624872881 0  -3.774816634825771 0.8676973328379478 0  2.208484493569073 1.6256686312487 0  0.1309939514660535 -1.566169703482512 0  -5.551414360955331 0.9459842275970113 0  -4.04734138658365 -1.51163984963472 0  -4.947145019546805 -0.3299925153029702 0  4.320410447198621 0.6970857582435144 0  -4.707557346727139 -1.000565649857444 0  1.353711468973986 1.582551234446199 0  1.674156483558973 0.3266252271732694 0  -4.039105552973997 -0.4537604746027087 0  0.01051727619263377 -1.088858357362194 0  -0.2234942609176301 0.8619127912343982 0  -2.95903482691863 0.1219373374385197 0  -4.682467695920681 0.0804575682243254 0  5.535750224195656 -0.1525732643419722 0  -4.290083947414376 -0.0005258314026840717 0  1.136102562417988 0.7655312464039168 0  -2.816589394567214 0.9927597419785312 0  -2.645374456162409 -0.7645902451387543 0  4.18414576655837 1.624276131878667 0  0.7127337088822223 -0.9006358935856398 0  1.972418102153911 0.9727040774616764 0  -2.42199174813501 0.8591219219254587 0  -2.418604734200992 -0.8552987735117754 0  -5.573597213364169 -0.03612430678117123 0  2.024792870869397 0.05574071630590883 0  -1.578875191508968 0.861424470724936 0  -1.54706008231699 -0.8630049102346303 0  3.848662181064435 -1.569601980075533 0  -2.000000000003871 -0.9746445732264465 0  -1.99999999
[...]
<PointData  Scalars="f_24"> 
<DataArray  type="Float64"  Name="f_24"  format="ascii">8.9629031584342655e-01  8.9629031584342655e-01  0.0000000000000000e+00  0.0000000000000000e+00  3.7400565369472460e-01  6.4575870174788796e-01  8.4094777467652559e-01  7.8723660901177750e-01  7.3190355595355583e-01  6.7729595638471130e-01  6.2314120836022635e-01  5.7259131798854401e-01  5.3363476344844507e-01  5.4687778681048105e-01  5.9980278144017751e-01  6.4275619346047652e-01  6.4716654895719550e-01  6.2439857058839154e-01  5.8417943215330381e-01  5.3722352688827824e-01  4.8719554952120214e-01  4.3520931240215927e-01  3.8088621823881968e-01  3.2804776932755092e-01  2.7363952975968731e-01  2.1890795878559716e-01  1.6418358109110257e-01  1.0947749882285576e-01  5.5328346967122716e-02  0.0000000000000000e+00  0.0000000000000000e+00  0.0000000000000000e+00  0.0000000000000000e+00  0.0000000000000000e+00  0.0000000000000000e+00  0.0000000000000000e+00  5.5280644946826912e-02  1.0969149626238583e-01  1.6431819306161213e-01  2.1941050975076951e-01  2.7349519386743626e-01  3.2774012034524069e-01  3.8162366112958346e-01  4.3513983542390977e-01  4.8666835521436230e-01  5.3722418866819610e-01  5.8412181029849575e-01  6.2366039458663780e-01  6.4799675368434040e-01  6.4213401537867165e-01  6.0049703834971491e-01  5.4677558341374644e-01  5.3361097793002621e-01  5.7263932432714360e-01  6.2302185602787397e-01  6.7727980374320007e-01  7.3259563758951440e-01  7.8652000318682769e-01  8.4113973357910343e-01  8.9629031584342655e-01  8.9629031584342655e-01  8.9629031584342655e-01  8.9629031584342655e-01  8.9629031584342655e-01  8.9629031584342655e-01  8.9629031584342655e-01  3.7273667176457070e-01  3.6901458450178737e-01  3.8703343563299691e-01  4.3368084707374421e-01  4.9784614266081900e-01  5.7434801598866747e-01  6.4176676701324753e-01  6.8560887245919389e-01  6.9531691046554800e-01  6.8285307372252468e-01  6.6367166048113813e-01  6.5029328370886308e-01  6.5012134597637594e-01  6.6357502866871998e-01  6.8270724092726109e-01  6.9631636072252767e-01  6.8622282874059937e-01  6.4164053163720891e-01  5.7438859797446296e-01  4.9825030258892300e-01  4.3305002220145028e-01  3.8749959811226153e-01  3.7097537998791591e-01  3.7106222076361234e-01  5.6966478295915901e-01  7.1675760829604296e-01  6.4636679119668672e-01  6.1228538326937254e-01  3.8303934948248247e-01  6.0901886897935653e-01  1.9596180930541721e-01  6.2568357387362439e-01  5.8145263462117935e-01  6.3045533538266385e-01  5.2193714357550935e-01  7.7739451014609484e-01  5.8116942378643999e-01  6.2842765543062606e-01  5.7018329813755741e-01  6.2808716184433788e-01  4.7082563403595329e-01  2.7378970217192677e-01  1.2948486838824491e-01  3.0024077604101257e-01  7.0422204438907676e-01  5.4250879972841626e-01  5.7633872489712190e-01  5.7575941983436085e-01  5.4254626654931370e-01  8.0106928924614085e-01  4.2364606861366533e-01  1.1380837017060530e-01  5.8810331320297027e-01  8.0200424683414540e-01  5.4347977951857129e-01  5.2006333562155016e-01  6.3961548454472017e-01  6.4233101519378100e-01  7.1781476437767866e-01  4.7049007554722289e-01  3.9063852332025883e-01  9.8093740643777683e-02  2.0964490308220929e-01  6.5967784918531325e-01  5.8114840219903985e-01  6.4842133314063266e-01  6.4298301172249805e-01  5.7010442397275451e-01  2.9182763363668601e-01  5.2212180455994595e-01  6.1433580302492252e-01  5.4329595950231679e-01  6.1275601040357153e-01  5.4337610710310935e-01  5.2170093497226178e-01  2.0440674022842478e-01  6.2671998041659316e-01  6.2652812879967945e-01  6.0477337124729813e-01  3.4538758755899268e-01  5.1780799095840702e-01  5.3160195798080823e-01  8.2202877080888748e-01  6.4071736339078189e-01  7.3321531674471618e-01  5.0102167193070957e-01  6.4048035974511630e-01  2.0564258533429550e-01  7.4890986782236366e-02  6.4358008691962321e-01  6.7518620504850624e-01  4.9071543115432220e-01  6.0620803156166103e-01  5.1636988687740815e-01  5.1944832756461434e-01  6.2760143199213703e-01  7.6628890339987810e-01  4.8508347737801277e-01  7.4070767179586572e-01  3.4456241485063194e-01  7.0571772212876815e-01  6.3074576294445672e-01  4.5206266175228754e-01  6.4643397513853262e-01  8.3345296472899177e-01  5.1938266768627139e-01  5.8830172512906720e-01  5.8878071428439693e-01  5.1939981306441452e-01  6.3208939756277993e-01  4.2354711391239214e-01  5.9892424390192844e-01  5.2354779107563143e-01  8.3311799897521088e-01  6.8490528106651682e-02  2.8003424348589773e-01  5.9065335497684501e-01  6.4324759436045009e-01  5.5392176557173445e-01  3.3330166150593032e-01  1.4145083525896113e-01  6.6341993382561623e-02  2.6317486740427948e-01  3.5124318339096544e-01  6.3364563276155628e-01  6.1543103609142245e-02  5.6495143281301097e-01  6.1836293874019810e-01  4.5995478739389328e-01  2.5690084757665682e-01  5.6497260623998791e-01  6.0870848896949625e-01  5.5340728258588678e-01  5.5344764304972605e-01  6.1341891368809154e-01  1.5390909470053518e-01  5.3820911136450222e-01  6.0747535337584113e-01  7.5901947580084239e-01  4.4434907301236243e-01  6.1765475712653295e-01  8.3802846915377838e-01  7.6883863978984868e-01  1.4859198147094127e-01  4.7363711038852530e-01  6.5414436731812753e-01  5.6372834209230427e-01  4.0389713527504484e-01  1.3836642574793440e-01  6.3510179049718851e-01  4.1742590869433294e-01  5.8991317698110068e-01  6.4900840025989159e-01  6.1757835796729899e-01  6.7598976431714541e-01  4.4900685147545694e-01  6.7842026206342831e-01  2.4139244236943527e-01  6.5770866133522188e-01  4.5565823059597760e-01  6.5779994351328042e-01  4.4836091890653362e-01  5.8879120974245414e-01  6.3639970234853738e-01  6.1310840616333340e-01  5.6835601369454392e-01  6.7730752964803909e-01  6.2438288182686164e-01  8.4581699395165566e-01  7.2228532317742311e-01  5.8577587673959175e-01  6.4843754105713958e-01  4.1168353679761688e-01  6.0617698572182466e-01  8.4709563268545574e-01  6.8591551923897776e-01  7.7849754191169074e-01  1.8354751370917763e-01  7.5488998322761902e-01  4.9942683182692899e-01  4.6211540688382474e-01  6.7025412141510010e-01  6.0902580749284430e-01  6.1915550790021046e-01  4.3482257563004179e-01  7.4720785950402469e-01  5.0767594489913491e-02  6.9884036093457180e-01  5.1570917555038620e-01  5.4016929602429731e-01  4.7020509668765936e-01  1.9890965894459436e-01  5.5483300331757635e-01  4.3457489212391714e-01  4.8306485489892886e-01  4.8318183355146721e-01  8.4919712308420736e-01  4.2672598085878766e-01  6.4821325974951494e-01  6.4774239947341605e-01  2.3524987304524902e-01  5.6340609224244653e-01  5.6346002707129383e-01  5.6112015451002495e-01  2.5657365332450405e-01  6.2890672669797232e-01  5.5183367513112358e-01  4.3195252371757843e-02  4.5545102489615505e-02  3.4474372536615755e-01  6.1184808182627892e-01  6.2929088077548734e-01  3.7673593305853165e-01  1.7777214052687657e-01  1.9123615472867850e-01  4.5869923400150420e-01  5.9433227491468743e-01  5.4160232110743123e-01  3.3811367697964062e-01  5.6154425137053909e-01  5.4685634891468526e-01  2.2816709818611872e-01  2.9691863757977788e-01  1.0967743056933901e-01  6.1823377486719810e-01  6.0916156385350062e-01  6.3525574240610094e-01  6.0943358706131634e-01  3.5438105958821547e-01  5.7429790846654494e-01  5.7165713201278168e-01  6.3454803146643246e-01  8.5178896084632416e-01  3.0838658410336728e-01  6.3665663437880471e-01  7.6736280094049869e-01  6.1201889672606113e-01  6.3252544062383920e-01  7.2798314093748040e-01  3.1985066478369789e-01  6.3757391168842736e-01  5.0662308906517517e-01  5.4881489610872880e-01  5.7669899492779242e-01  5.7718536918076591e-01  5.4883308414874221e-01  4.8813755457101476e-01  6.1164018349886318e-01  3.0113759676241325e-01  6.3320293936537153e-01  4.3377195551468684e-02  7.9745930107925023e-01  4.8866165395659100e-01  6.5096500340854890e-01  5.6153557861864689e-01  4.9703352319908001e-01  1.5734382199803013e-01  5.6716350090582002e-01  5.4187007155804590e-01  8.0431148618463555e-01  7.4155189432479018e-01  8.1071453564953011e-01  5.5886450126613441e-01  5.1704099822282257e-01  5.9078896813680404e-01  2.4897872390514753e-01  6.3074585911676084e-01  4.9114557146959148e-01  7.1169250556689734e-01  6.2228811522140703e-01  6.4545918365812927e-01  4.6229929756430317e-02  1.0348806220646663e-01  6.5207298508873668e-01  6.3041572729508299e-01  1.0646561318431975e-01  3.1500018068647451e-01  7.9793064975515116e-01  3.6570230475509558e-01  5.4682492591048626e-01  6.0878725312748538e-01  6.7525749510598720e-01  8.6292893038638219e-01  6.3500190429315917e-01  7.0755940721421795e-01  9.0527820709592824e-02  1.5429101833758449e-01  4.1996187226419829e-01  6.3006594896841650e-01  5.7431510076211678e-01  5.3919519293822038e-01  8.5720216107251346e-01  2.4084598771986865e-01  1.8844755567026586e-01  6.4719284078942285e-01  5.4197701571348855e-01  7.9641073533763262e-01  3.7263414598313428e-02  6.3516403187301806e-01  3.7446750333517109e-01  3.8534251691914073e-01  6.1987279608897594e-01  5.0145078837209844e-01  4.9684835109001496e-01  5.2030741573077555e-01  6.1132278111745453e-01  8.6757675440008852e-01  6.4511138268786472e-01  5.9042169442083603e-01  6.4783064031361171e-01  7.0096923421907353e-01  4.4847178489148753e-01  2.4493344745012477e-01  6.2716558027667846e-01  3.1920050436436143e-02  8.6776544915776865e-01  8.0832238585765881e-01  4.6007354381574400e-01  6.0207387936775281e-01  6.1821336045218589e-01  7.6148465760091444e-01  5.9510348550037184e-01  5.6904608063206197e-01  6.4757490197022394e-01  7.3618045584218850e-01  2.2229806725756443e-01  3.9117599483707705e-01  1.0000983524935286e-01  6.7215271644473507e-01  5.9034164705447778e-01  6.2454447376750089e-01  6.2228526074683832e-01  7.7171015921016861e-01  3.0032425408554636e-01  5.2405980478270187e-01  5.2428945846019348e-01  6.2999074004369537e-01  6.3060965131601665e-01  4.9219765640040325e-01  4.5052001688616561e-01  </DataArray> 
</PointData> 
</Piece>
</UnstructuredGrid>
</VTKFile>