<?xml version="1.0"?>
<VTKFile type="UnstructuredGrid"  version="0.1"  >
<UnstructuredGrid>
<Piece  NumberOfPoints="622" NumberOfCells="1116">
<Points>
<DataArray  type="Float64"  NumberOfComponents="3"  format="ascii">-6 -2 0  -6 2 0  6 2 0  6 -2 0  -2.8 0 0  -1.2 0 0  -5.500000000001853 -2 0  -5.000000000003705 -2 0  -4.500000000005556 -2 0  -4.000000000007409 -2 0  -3.50000000000926 -2 0  -3.000000000011112 -2 0  -2.500000000012963 -2 0  -2.000000000014814 -2 0  -1.500000000016665 -2 0  -1.000000000018516 -2 0  -0.5000000000203677 -2 0  -2.204547655537681e-11 -2 0  0.4999999999796305 -2 0  0.9999999999814779 -2 0  1.499999999983327 -2 0  1.999999999985175 -2 0  2.499999999987029 -2 0  2.999999999988882 -2 0  3.499999999990735 -2 0  3.999999999992589 -2 0  4.49999999999444 -2 0  4.999999999996293 -2 0  5.499999999998147 -2 0  6 -1.500000000001387 0  6 -1.000000000002774 0  6 -0.5000000000041616 0  6 -5.505595979116151e-12 0  6 0.4999999999958384 0  6 0.9999999999972258 0  6 1.499999999998613 0  5.500000000001853 2 0  5.000000000003705 2 0  4.500000000005556 2 0  4.000000000007409 2 0  3.50000000000926 2 0  3.000000000011112 2 0  2.500000000012963 2 0  2.000000000014814 2 0  1.500000000016665 2 0  1.000000000018516 2 0  0.5000000000203677 2 0  2.204547655537681e-11 2 0  -0.4999999999796305 2 0  -0.9999999999814779 2 0  -1.499999999983327 2 0  -1.999999999985175 2 0  -2.499999999987029 2 0  -2.999999999988882 2 0  -3.499999999990735 2 0  -3.999999999992589 2 0  -4.49999999999444 2 0  -4.999999999996293 2 0  -5.499999999998147 2 0  -6 1.500000000001387 0  -6 1.000000000002774 0  -6 0.5000000000041616 0  -6 5.505595979116151e-12 0  -6 -0.4999999999958384 0  -6 -0.9999999999972258 0  -6 -1.499999999998613 0  -2.796147781337886 -0.07841371226233997 0  -2.784628224322852 -0.1560722576115546 0  -2.765552268586196 -0.2322277418021561 0  -2.739103626009626 -0.30614674589063 0  -2.705537011479457 -0.3771173894593519 0  -2.665175689843037 -0.4444561864141836 0  -2.618408362691456 -0.5075146273293722 0  -2.565685424950688 -0.5656854249477874 0  -2.507514627332613 -0.6184083626887972 0  -2.444456186417533 -0.6651756898407991 0  -2.377117389462776 -0.7055370114776264 0  -2.306146745894456 -0.7391036260080417 0  -2.232227741806235 -0.7655522685849585 0  -2.15607225761588 -0.784628224321992 0  -2.078413712266957 -0.7961477813374315 0  -2.000000000003407 -0.7999999999999998 0  -1.921586287739523 -0.7961477813380696 0  -1.843927742389945 -0.7846282243231506 0  -1.767772258198879 -0.7655522685865098 0  -1.693853254109962 -0.7391036260098718 0  -1.622882610540873 -0.7055370114795768 0  -1.555543813585629 -0.6651756898429115 0  -1.49248537267008 -0.6184083626910072 0  -1.434314575051535 -0.5656854249500112 0  -1.381591637310384 -0.5075146273316149 0  -1.334824310158267 -0.4444561864161359 0  -1.294462988521423 -0.3771173894609975 0  -1.260896373990956 -0.3061467458920351 0  -1.234447731414138 -0.2322277418032578 0  -1.215371775677287 -0.156072257612254 0  -1.203852218662147 -0.07841371226267954 0  -1.203852218662115 0.07841371226235888 0  -1.215371775677132 0.156072257611478 0  -1.234447731413795 0.232227741802127 0  -1.260896373990353 0.3061467458905811 0  -1.294462988520456 0.3771173894591898 0  -1.334824310156812 0.444456186413959 0  -1.381591637308413 0.5075146273292139 0  -1.434314575049147 0.5656854249476236 0  -1.492485372667197 0.6184083626886415 0  -1.555543813582104 0.6651756898405565 0  -1.62288261053673 0.7055370114773629 0  -1.693853254105125 0.7391036260078683 0  -1.767772258193396 0.7655522685848468 0  -1.84392774238373 0.7846282243219146 0  -1.921586287732977 0.7961477813374253 0  -1.999999999996558 0.8 0  -2.078413712260516 0.7961477813380661 0  -2.156072257610207 0.7846282243231205 0  -2.232227741801178 0.7655522685864928 0  -2.306146745890059 0.7391036260098632 0  -2.377117389459098 0.7055370114795929 0  -2.444456186414405 0.6651756898428894 0  -2.50751462732998 0.6184083626909587 0  -2.565685424948549 0.5656854249499272 0  -2.61840836268981 0.5075146273313792 0  -2.665175689841831 0.4444561864159886 0  -2.705537011478692 0.3771173894607835 0  -2.739103626009108 0.3061467458918818 0  -2.76555226858589 0.2322277418031643 0  -2.784628224322724 0.1560722576122001 0  -2.796147781337853 0.07841371226267957 0  0.6720367661319522 0.1312687487860887 0  -4.389489086394485 0.3544472233398538 0  -3.816221554046232 -0.6097988664512611 0  -3.552726516474419 0.9342959806851625 0  -0.2536610443052337 0.8162373554653355 0  -0.1843238977799138 -0.6649951410982842 0  -3.613359951620445 0.1086570650978273 0  -3.146954163409593 -1.074378179335012 0  -0.4255266515582625 0.07734891565364931 0  -0.9413731612925856 1.168014724254929 0  -2.947764053183577 1.200029094390044 0  -0.8319852757411681 -1.058626838707328 0  2.675418990747819 -1.137325591670363e-12 0  -2.602010642259726 -1.287560129290477 0  -2.334401622060699 1.335006108940604 0  -1.524718496628401 1.32890816230333 0  -1.369813829148039 -1.26145150481762 0  -3.294065651892671 -0.4630240940010318 0  -2.072749204569071 -1.388981302138359 0  -0.7546165313921411 0.5601792161340381 0  -3.224879719581335 0.4382689715877901 0  -0.7073137361349826 -0.4625305410752652 0  4.326242945813966 0.3262429458150917 0  -3.187880061217201 0.07437712177460168 0  -2.94792024259867 0.7030255657465158 0  -2.678809277907896 0.9152683582887104 0  -4.911626141576894 -0.5700186648601188 0  -2.980647654587299 -0.5685006168686053 0  -2.769438919323564 -0.8202775213660614 0  -1.936950121013948 1.220669938589229 0  -0.8971643766260747 0.2762459428874499 0  -0.8760878018253068 -0.06836412137772707 0  -1.086827485441145 0.6772548942594016 0  -1.31355927028917 0.8808768148414213 0  -1.034266382739347 -0.5912381576649568 0  -1.241594139118264 -0.836771920085274 0  1.667161185638911 -0.6367996576268693 0  1.778189842800902 0.7191719841256095 0  -3.065106827511819 -0.266795371500425 0  3.714311277362231 -0.7275465302492842 0  -1.728329421201519 -1.09954751473283 0  4.870629493137888 -0.7325040699186681 0  -3.024707894719303 0.2567561910603656 0  -4.375540207252226 1.228935704312058 0  -2.272077148001781 -1.086192861256262 0  3.351408248797803 0.9175227128129597 0  -5.141847419540732 0.8091901960109126 0  0.5769368286199241 1.111816231125821 0  0.7411482978492124 -1.079569101289617 0  -1.074013749991219 0.430231207546053 0  -1.04664573441257 -0.3358382377487088 0  -2.439195336951085 0.9224778883059374 0  -2.902607676587358 0.4360473765597399 0  -1.629450174302152 1.035617385691805 0  -2.146859933125513 1.032375363966426 0  2.587625196444542 -0.9999926061845814 0  -2.529286802957126 -0.8830616815739111 0  -1.493798157676768 -0.8794705728517196 0  -1.932158132383022 -1.026681566564148 0  -4.09956359341904 -0.1372485582942864 0  5.055802064425553 1.050933510837308 0  -4.413659685984891 -1.207626391697488 0  -4.961411026474009 0.1201902955685026 0  -3.771151641156835 -1.303594976371997 0  -3.001321503506133 -0.04919177107285733 0  -3.881733605683001 0.5124517634812003 0  -0.1971627317996802 -1.336445372382849 0  -2.742825060181767 0.6732573903735507 0  2.520439429199979 1.129372838786189 0  -1.026326428668429 0.1384273198437734 0  -2.779290004861729 -0.5844691722665721 0  -2.895095740820851 -0.4261289730972082 0  -1.275682076193407 0.6630703172777138 0  0.1045291701958869 0.3433373435296472 0  5.175560481258801 0.0608563229178163 0  -1.211574424201636 -0.5847362589868093 0  -1.85847006217035 1.007917631940711 0  4.152535916385823 1.131901130662082 0  -1.04878257200685 -0.1253529988863012 0  1.432836501626023 0.05634449574318775 0  3.560672936003603 0.01188897172456759 0  -3.351823698389408 -0.1821329582635926 0  -5.145153363200735 -1.259166339382508 0  0.03473693330309885 -0.1724947236036572 0  -4.377830921337186 -0.6172564090242229 0  -0.3943750728122595 1.410897156959435 0  -1.661073679471639 -0.9342065000197183 0  -1.49086536677686 0.8331714487926741 0  -2.584486130952032 0.7871482690034864 0  4.270535884593893 -1.259607924744415 0  -1.757417028085795 -1.505182186951191 0  -3.430586920998477 1.425579221231371 0  -2.917598827418652 -0.2298465409534677 0  -2.328978331116049 -0.9300959620317677 0  -2.148543000691344 -0.9751580214451921 0  1.002654111360038 -0.4521702885594788 0  -4.628651824080903 -0.1127998710567241 0  -2.948904386702482 0.1555943115410545 0  0.4165242577134774 -0.5629432649478633 0  -3.698137692471105 -0.3173027948676715 0  -3.491400684461791 -0.7926319721650269 0  -0.3844454817728994 0.4680628696134375 0  -3.207830713508533 0.9778749990559993 0  3.229909751065535 -1.326302454776001 0  5.330007715336748 -1.312905173261894 0  -2.649214054100534 -0.713314536278899 0  1.342022964818772 -1.328315248672686 0  -2.556460939068198 1.202372762828344 0  -0.3497819755044588 -0.3080427614060888 0  -4.928440909495523 1.387622767511967 0  1.309170811945155 1.337467055109531 0  -1.352031940181449 -0.7151198948590243 0  -0.6132855723904642 0.9519045895123004 0  4.266838388406324 -0.3707357390867402 0  -3.834389788310238 1.371594798941152 0  -1.187890214580146 0.4851427123079557 0  -1.109118888029193 0.3185947354467283 0  0.1837819401738013 1.234799661476361 0  1.108165254659559 0.6237223548284967 0  -0.5266600156584522 -0.8113991260886402 0  -4.643822083543982 0.7834094684931707 0  -1.146235204666366 -0.4027330721405781 0  2.049029845992713 -0.2664662499985428 0  2.002665761665898 -1.328912351029848 0  -1.678783505586872 0.8978832065736417 0  -2.049499525232052 0.9483890761590005 0  -2.229972236535132 0.9181006323151361 0  -3.033763529945482 -1.54240494280775 0  -3.562344364746847 0.5622550957224539 0  -5.524396842903405 -0.2709714867672603 0  -0.9710982764034376 -1.549038578476423 0  3.058819320130555 -0.5375106252795963 0  -4.170365230099585 0.7342553699229977 0  -1.045878746461381 -8.187420622554697e-05 0  -1.864822945411764 -0.9219031104673102 0  -0.6251005091687033 -0.2120650512195049 0  2.317562622406059 0.4886417799113238 0  -0.6674371191466613 0.1483993095055008 0  -2.705757882979874 1.609712312948224 0  
[...]
<PointData  Scalars="f_24"> 
<DataArray  type="Float64"  Name="f_24"  format="ascii">9.9999997649621175e-01  9.9999997649621175e-01  9.9999997649621175e-01  9.9999997649621175e-01  4.9856239444301015e-01  8.6113041192348538e-01  9.8632880467553619e-01  9.7336905835768661e-01  9.6109663002545920e-01  9.5166952487986411e-01  9.4537424900051470e-01  9.4351086407576967e-01  9.4215469809952890e-01  9.2829865048766813e-01  8.8998432596993637e-01  8.4741909764378398e-01  8.7865412068780313e-01  9.8549325074560468e-01  1.0750247081069524e+00  1.1049315768914811e+00  1.1101702203331654e+00  1.1076787898674971e+00  1.1011125651807732e+00  1.0902454101332746e+00  1.0770433062321054e+00  1.0607850138018873e+00  1.0465271854546356e+00  1.0297652715938792e+00  1.0158098412250625e+00  9.9999997649621175e-01  9.9999997649621175e-01  9.9999997649621175e-01  9.9999997649621175e-01  9.9999997649621175e-01  9.9999997649621175e-01  9.9999997649621175e-01  1.0156627060794252e+00  1.0300199161954242e+00  1.0464191905066049e+00  1.0604376117213687e+00  1.0766365772862199e+00  1.0906675928375222e+00  1.1000732454789734e+00  1.1075027509167152e+00  1.1096850565837455e+00  1.1047971751370997e+00  1.0747552777019855e+00  9.9039698570745538e-01  8.8430558409646132e-01  8.4972839035725389e-01  8.9085705650827895e-01  9.2687352771208653e-01  9.4138095406158939e-01  9.4238182917258828e-01  9.4469869981404986e-01  9.5053515693401824e-01  9.6089078409432627e-01  9.7266285440578515e-01  9.8572524060681510e-01  9.9999997649621175e-01  9.9999997649621175e-01  9.9999997649621175e-01  9.9999997649621175e-01  9.9999997649621175e-01  9.9999997649621175e-01  9.9999997649621175e-01  5.0324772718949395e-01  5.1731774241869533e-01  5.2887463458749551e-01  5.5565113463236449e-01  5.8061448486071088e-01  6.2480461522699016e-01  6.4422429734250275e-01  6.8990010209346753e-01  7.0492329007247190e-01  7.5483349395636190e-01  7.7964059768867933e-01  8.3533497450840954e-01  8.6493476504538469e-01  9.0777374869559657e-01  9.3678110774104384e-01  9.6349369018205422e-01  9.8195548625993978e-01  9.8262936330548811e-01  9.7146234942452292e-01  9.5177515490388820e-01  9.2755350547898940e-01  9.0340181425486354e-01  8.8376212767166451e-01  8.6858007546445359e-01  8.5943099591593219e-01  8.5418144986654576e-01  8.5319174093968131e-01  8.5405252913401208e-01  8.5642168709616528e-01  8.5876639303167857e-01  8.6049240275642003e-01  8.6056314717907356e-01  8.5892790492560112e-01  8.5657768275251955e-01  8.5449898792353984e-01  8.5309968160532268e-01  8.5446781983272169e-01  8.5904101253797227e-01  8.6828410707232972e-01  8.8311049624212512e-01  9.0298311990563318e-01  9.2709762853408684e-01  9.5244136531636747e-01  9.7170359360615044e-01  9.8395940054753495e-01  9.7980661085144316e-01  9.6544563746652712e-01  9.4155777863073820e-01  9.0490605399401181e-01  8.8052090410261241e-01  8.3943403539356676e-01  7.8753303608834480e-01  7.3712632283175206e-01  7.2474161696024797e-01  6.7116369828155009e-01  6.4847055731742298e-01  6.2007299858463683e-01  5.8611962567042608e-01  5.5216129464321984e-01  5.3986263356021258e-01  5.1404533600770264e-01  5.0472818250138241e-01  1.0497810732549646e+00  9.4125448862559769e-01  9.1725451537010261e-01  9.2181260037106127e-01  8.8386440177140047e-01  9.2574363174859042e-01  8.8157774103182418e-01  9.2689628870527385e-01  9.1200326509531560e-01  7.5254390379395675e-01  9.3620019708933255e-01  7.3609474957335663e-01  1.0892794736405425e+00  9.4811454500420722e-01  9.4590798621733518e-01  8.8690334230212575e-01  8.5283608102721387e-01  8.6079054195363236e-01  9.4014626680136537e-01  8.4089676537202440e-01  8.4421439360784478e-01  8.5717949533582927e-01  1.0503030591242828e+00  7.9433652535482613e-01  8.6111175754071689e-01  9.0591503550286157e-01  9.6414318611248606e-01  8.2699337453720134e-01  8.8320983857273816e-01  9.2992679349309482e-01  8.6207376544934955e-01  8.6982162314100708e-01  8.2824516889473021e-01  8.5840690021305777e-01  8.3389913678757366e-01  8.4127073381709561e-01  1.0905981671340375e+00  1.0921232493053317e+00  7.6928341407792045e-01  1.0683743187900203e+00  9.2777562147713499e-01  1.0343183602811321e+00  7.5069669192751209e-01  9.5394420518740319e-01  9.3259030200287441e-01  1.0787945838856943e+00  9.7315621870803937e-01  1.0742818787196258e+00  1.0847750481027318e+00  8.4946621257711663e-01  8.5421799379060792e-01  9.0320660557240096e-01  7.5912960209106994e-01  9.2174124333768881e-01  9.2224132587551622e-01  1.0927890710504964e+00  8.9557900590109407e-01  9.0807986472511204e-01  9.2930593126500893e-01  9.2337274528785207e-01  1.0287761032653555e+00  9.5527237600912684e-01  9.6416901847571068e-01  9.4321843240722913e-01  7.0674582134274788e-01  9.1757103378697458e-01  8.7621747569283370e-01  8.2462790584351775e-01  1.0944188673671373e+00  8.6219310798162596e-01  7.8651969083682938e-01  7.5014570198979935e-01  8.5283672263612564e-01  9.8807449585529772e-01  1.0249107634756607e+00  8.4736438864375774e-01  9.3395950466051414e-01  1.0560525061948189e+00  8.6172144543890061e-01  1.0836783785742234e+00  1.0720795850432197e+00  8.4265377401958896e-01  9.7553658171486901e-01  9.7718160095116113e-01  9.4430199523419966e-01  8.2527184701653022e-01  9.3568244573325243e-01  9.0393149500454384e-01  8.5896089878191628e-01  1.0528067477122400e+00  9.1876652146586701e-01  9.4189222856903587e-01  6.8492700087912395e-01  9.0274246055651231e-01  9.1460357237583156e-01  1.0756746150055700e+00  9.5059514081085228e-01  6.8414761961014514e-01  1.0348083012685430e+00  8.9633916739315256e-01  9.1067914239835990e-01  9.0136379556144319e-01  9.1689815178807099e-01  1.0834482364485807e+00  1.0205296529581847e+00  8.3035207778912845e-01  1.1023360413831442e+00  9.4353654789691010e-01  9.1693767299154139e-01  9.6975291883388126e-01  1.1029154299959329e+00  8.6661320504345463e-01  7.6440058736338146e-01  1.0521823084415924e+00  9.4514003868996044e-01  8.4941500414240712e-01  8.5481857981144260e-01  1.0090892951208363e+00  1.0838364143017629e+00  8.0670595271532497e-01  9.5619791086029915e-01  8.5111043281422261e-01  1.0910303891466091e+00  1.1007131244441541e+00  9.4167781351455904e-01  9.1871232691679661e-01  8.9759357262529216e-01  9.4448822464767013e-01  8.9729987423112711e-01  9.8412072971406039e-01  8.1165385056073058e-01  1.0840462316941244e+00  9.3769767654301162e-01  8.6327440747633266e-01  9.4265915376760578e-01  8.8461149753387391e-01  1.0915954764246711e+00  8.8348155442748544e-01  9.4372794579448427e-01  1.1014519098422462e+00  7.6929260542597966e-01  6.8476231610625671e-01  8.6749559197671788e-01  8.8866569329343981e-01  9.8697784479195239e-01  9.9066060325708782e-01  8.6202965232058493e-01  8.8591199383584485e-01  9.2117657849286116e-01  9.1219799850840633e-01  8.7373126240979759e-01  8.6860069336501022e-01  7.0846294214773453e-01  7.8140029542680645e-01  8.5780022745727447e-01  1.0098763442385257e+00  1.0198918366723433e+00  8.9619361885465576e-01  1.0877839585145566e+00  7.9466847854466383e-01  9.8307870147407150e-01  7.8877655510964151e-01  1.0405275177539819e+00  1.0715275877442374e+00  8.4898284560788573e-01  9.1425128770698050e-01  7.9421605921575755e-01  9.3497852986284313e-01  1.0186816908025875e+00  8.4242481786259438e-01  7.9440648571712491e-01  8.3400871237966179e-01  8.0810134503175080e-01  1.0871196415013440e+00  9.4325578124887344e-01  7.9665280182610820e-01  9.8008765966828681e-01  9.3363345040252321e-01  6.2588447037778250e-01  6.5939629486079576e-01  7.9377073023220224e-01  1.0173066013438354e+00  9.3072577045349136e-01  1.0635882207648173e+00  8.8187239755354008e-01  9.1566918031688227e-01  9.5694662544268538e-01  1.0409615782840798e+00  8.5545023644219187e-01  7.6030978010431027e-01  8.1877867758343503e-01  6.2644253927832716e-01  8.9036922801650564e-01  8.6048399485084481e-01  1.0693599947491068e+00  1.0365995955204956e+00  9.4126761027073425e-01  8.9398646096754897e-01  8.3734450067809763e-01  9.4178359543035339e-01  9.0259344872951031e-01  8.6955082369906977e-01  9.5380359110712265e-01  9.3302504125501728e-01  8.5802389302564697e-01  7.6030731532123863e-01  9.3412148860383259e-01  1.0363064802171702e+00  8.5423846911807477e-01  8.5288932245042381e-01  1.0945713136582853e+00  1.0949087217953966e+00  9.6602165473435841e-01  8.5190477267030407e-01  9.3200255780020880e-01  8.4758120225756406e-01  1.0617642847175996e+00  9.3136086722907374e-01  8.9732174057026604e-01  8.6238239831849428e-01  1.0940382934654991e+00  7.9698079430079816e-01  9.3184974196471293e-01  6.2207805806488492e-01  6.5637256587065762e-01  9.5345172965419134e-01  9.5333005662524706e-01  1.0927989129581270e+00  9.5398759151822177e-01  8.4633107205272762e-01  6.6343053297043253e-01  8.8907265710697092e-01  8.6009264486855908e-01  8.5465432310512301e-01  9.6297823843344921e-01  1.0975973761786322e+00  7.5103525966942553e-01  1.0312343516106137e+00  5.9982457948323831e-01  1.0900831907421362e+00  8.8460673094917286e-01  8.6025956212810972e-01  8.4314129922459302e-01  1.0381017304435469e+00  7.1516574907613062e-01  9.4357941869364181e-01  8.6130877471704104e-01  9.8580670915845636e-01  1.0906972136109299e+00  6.8485365980326729e-01  8.5486404834497065e-01  7.1872007307285102e-01  9.8906466912863611e-01  8.7660643242274117e-01  9.3723691567441225e-01  8.7330399194272901e-01  9.3654415945145641e-01  9.2543953556314407e-01  9.1295686339862270e-01  9.3156417387075086e-01  8.3152696194676856e-01  8.9466358140485613e-01  9.2834432316111359e-01  8.6003577176555090e-01  9.1442085515831084e-01  8.5105807913196230e-01  8.8489897572382903e-01  8.0743574341858293e-01  9.2179660281504383e-01  9.4046196383285074e-01  9.5125200229426354e-01  8.5522155099737851e-01  9.5165533257666002e-01  9.4090705398595154e-01  9.4677640746078640e-01  9.2955724112230498e-01  7.3387637307781184e-01  1.0596010835458489e+00  1.0431728020654312e+00  7.9507056421187516e-01  9.2993405640945137e-01  8.6971195081919850e-01  8.0601760810920409e-01  8.4148935872341579e-01  9.4489973996838095e-01  8.2581886906071189e-01  8.7934221864521089e-01  7.4623240709414473e-01  1.1007217437114618e+00  9.2779446171112867e-01  8.5830257557128953e-01  1.0484665222614864e+00  9.4730639882718848e-01  9.3640743438720608e-01  8.2730018130346439e-01  8.1268104900782401e-01  9.4749748362886199e-01  9.3937590538008930e-01  7.1723731659183376e-01  1.0126998069510831e+00  9.6634595824515590e-01  8.6139950028996959e-01  9.7921179726440155e-01  1.0710429048924912e+00  8.5071273479336151e-01  8.6149145338765754e-01  8.4579143622243502e-01  1.0540915456390416e+00  9.3814342674649875e-01  9.3185114419857462e-01  9.2985540370726005e-01  1.0113568679187221e+00  8.3135396443217202e-01  8.4646305055882631e-01  1.0942892693730903e+00  8.5723788735494166e-01  9.4777139222953788e-01  9.6049644628322306e-01  8.9103214260640995e-01  1.0134392595774018e+00  1.0833792588119113e+00  7.7523069487612428e-01  8.7362364865478082e-01  9.6135795798901524e-01  8.3023212978244887e-01  8.9420167827858033e-01  6.0537032752921682e-01  8.7424578810745535e-01  1.1066108360892786e+00  1.0835234529777933e+00  1.0754541325732503e+00  1.0882516511395601e+00  9.6213875222415901e-01  1.0766397565547789e+00  7.3772716223648649e-01  9.0074432481891231e-01  7.6207482481683042e-01  9.3178279785600970e-01  8.0510854778729291e-01  9.8380707129451539e-01  8.7296868582552645e-01  9.8464742694640617e-01  1.0865284983080687e+00  8.7332931902588429e-01  1.0931820584187073e+00  9.5340315310867996e-01  1.0511151710361433e+00  1.1031498577730570e+00  9.7767482096237890e-01  8.6144365535352518e-01  9.7038716447981477e-01  9.4197511759595265e-01  8.6844251506854697e-01  1.0866302346871572e+00  1.0072807575366793e+00  7.8246563697663740e-01  1.0685975402228292e+00  5.8918373863895690e-01  8.8379739037727800e-01  8.7534203931797028e-01  9.5307358515416041e-01  8.3962777790842869e-01  1.0122618963461620e+00  1.0538606323945952e+00  1.0911577547586759e+00  1.0982647106023558e+00  9.4820208095832204e-01  1.0290960612653883e+00  1.1058982897740368e+00  9.2021465699733962e-01  9.2250453481750305e-01  1.0955663785622776e+00  9.4541658937134132e-01  8.8973819424281875e-01  1.0633833619462958e+00  9.2641891623942452e-01  9.3308952067224438e-01  8.2747562116214302e-01  8.5415702293312701e-01  9.0335760058319436e-01  8.9600072789441987e-01  9.2646272758399939e-01  9.3524943815238593e-01  9.4899487947026928e-01  8.7660006361447185e-01  8.8541027722253474e-01  1.0395555482968970e+00  8.4986106470175182e-01  1.0642436731189531e+00  9.1669999066130337e-01  8.9599466284958951e-01  9.1868438245646988e-01  8.8098259526661249e-01  9.4409401706976859e-01  1.0398470691942150e+00  8.4012462005488542e-01  8.9893417614033322e-01  9.3919150878631630e-01  8.5530406252297320e-01  8.9799211669741785e-01  1.0285745739606231e+00  8.6599981175518093e-01  8.5266423382569878e-01  7.4058902088228817e-01  8.9464788320029165e-01  9.4587354186364658e-01  1.0688698954150615e+00  9.4634341105994990e-01  9.3691381221872516e-01  8.5290594030064260e-01  8.6451438139817083e-01  9.3579475982918259e-01  8.4720611252958244e-01  1.0107719753279636e+00  9.9000929631483470e-01  9.7625843131721601e-01  1.0838559569458064e+00  1.1062189009069392e+00  1.0555840988487399e+00  1.0239266690565925e+00  9.8907208878348818e-01  9.5809972670915045e-01  1.0981585894348254e+00  9.4445871784608981e-01  1.1061630679505128e+00  9.4422009062967194e-01  9.5651013062404600e-01  8.1261336268296536e-01  9.5758437934689666e-01  1.0837045098817619e+00  9.1044827228234249e-01  8.0854676199066389e-01  9.3803894589681946e-01  1.0266810971417262e+00  9.3981544096176428e-01  1.0994559043802712e+00  1.0540351853271352e+00  8.3676318492112900e-01  1.0726843692104862e+00  1.0910748882799057e+00  1.0652438729742890e+00  9.1665222989198336e-01  1.0772116487056713e+00  9.0737871534020698e-01  8.9161376855639118e-01  1.0486470807650059e+00  8.7823359657380817e-01  9.0741416496480765e-01  1.0088912216685171e+00  8.2887536767577796e-01  7.5746583059300021e-01  8.2616836224053158e-01  9.1470663240487504e-01  1.0508328433072602e+00  8.5484092009997847e-01  1.0927110162560538e+00  9.1322722415533608e-01  9.6348829374964085e-01  6.1019675700927090e-01  9.5032509211234562e-01  8.7686841868673315e-01  8.1817852012554404e-01  9.6874435349662069e-01  9.8412923217531145e-01  9.7275034561554008e-01  8.6498254591311696e-01  1.0096399105208897e+00  1.0593758141163605e+00  1.0887258332363476e+00  8.6697857509853871e-01  8.4659475555476260e-01  9.1357100167295169e-01  8.7116382486574750e-01  7.9994897964821376e-01  9.2153857530919780e-01  9.4762058482929679e-01  6.9900358784869998e-01  9.9216659641893656e-01  9.4812940952672398e-01  7.6257336143260324e-01  9.0661252752215060e-01  9.7486416101273476e-01  7.5553582005500641e-01  7.8976050224247818e-01  9.9026357984181368e-01  1.0483053041046435e+00  1.0976917339565777e+00  9.4385952911385573e-01  8.7362774492833428e-01  8.5522738243361385e-01  9.7543002530191281e-01  7.4730338671697416e-01  9.0123722056885081e-01  9.6983999312505098e-01  </DataArray> 
</PointData> 
</Piece>
</UnstructuredGrid>
</VTKFile>