<?xml version="1.0"?>
<VTKFile type="UnstructuredGrid"  version="0.1"  >
<UnstructuredGrid>
<Piece  NumberOfPoints="406" NumberOfCells="722">
<Points>
<DataArray  type="Float64"  NumberOfComponents="3"  format="ascii">-6 -2 0  -6 2 0  6 2 0  6 -2 0  -2.8 0 0  -1.2 0 0  -5.500000000001853 -2 0  -5.000000000003705 -2 0  -4.500000000005556 -2 0  -4.000000000007409 -2 0  -3.50000000000926 -2 0  -3.000000000011112 -2 0  -2.500000000012963 -2 0  -2.000000000014814 -2 0  -1.500000000016665 -2 0  -1.000000000018516 -2 0  -0.5000000000203677 -2 0  -2.204547655537681e-11 -2 0  0.4999999999796305 -2 0  0.9999999999814779 -2 0  1.499999999983327 -2 0  1.999999999985175 -2 0  2.499999999987029 -2 0  2.999999999988882 -2 0  3.499999999990735 -2 0  3.999999999992589 -2 0  4.49999999999444 -2 0  4.999999999996293 -2 0  5.499999999998147 -2 0  6 -1.500000000001387 0  6 -1.000000000002774 0  6 -0.5000000000041616 0  6 -5.505595979116151e-12 0  6 0.4999999999958384 0  6 0.9999999999972258 0  6 1.499999999998613 0  5.500000000001853 2 0  5.000000000003705 2 0  4.500000000005556 2 0  4.000000000007409 2 0  3.50000000000926 2 0  3.000000000011112 2 0  2.500000000012963 2 0  2.000000000014814 2 0  1.500000000016665 2 0  1.000000000018516 2 0  0.5000000000203677 2 0  2.204547655537681e-11 2 0  -0.4999999999796305 2 0  -0.9999999999814779 2 0  -1.499999999983327 2 0  -1.999999999985175 2 0  -2.499999999987029 2 0  -2.999999999988882 2 0  -3.499999999990735 2 0  -3.999999999992589 2 0  -4.49999999999444 2 0  -4.999999999996293 2 0  -5.499999999998147 2 0  -6 1.500000000001387 0  -6 1.000000000002774 0  -6 0.5000000000041616 0  -6 5.505595979116151e-12 0  -6 -0.4999999999958384 0  -6 -0.9999999999972258 0  -6 -1.499999999998613 0  -2.776753453941174 -0.1914525314286965 0  -2.708364820523325 -0.3717785376335722 0  -2.598808598538216 -0.5304981265911284 0  -2.454451797386757 -0.65838709271366 0  -2.283683909636528 -0.748012994147384 0  -2.096429344207466 -0.7941670992780535 0  -1.903570655798842 -0.7941670992788195 0  -1.716316090368095 -0.7480129941491368 0  -1.545548202616307 -0.6583870927157747 0  -1.401191401463757 -0.530498126593356 0  -1.291635179477527 -0.371778537635196 0  -1.223246546059047 -0.1914525314295925 0  -1.223246546058803 0.1914525314286035 0  -1.291635179476594 0.3717785376334188 0  -1.401191401461634 0.5304981265909601 0  -1.545548202612898 0.6583870927134221 0  -1.716316090363093 0.7480129941472402 0  -1.903570655792394 0.7941670992780367 0  -2.096429344201276 0.7941670992788055 0  -2.283683909631911 0.7480129941491347 0  -2.454451797383697 0.6583870927157729 0  -2.598808598536385 0.530498126593196 0  -2.70836482052258 0.3717785376349917 0  -2.776753453940975 0.1914525314295042 0  0.4588466633941945 0.2704149791022056 0  -4.424312812173863 0.2760319703992994 0  -3.803977598762586 -0.6841584599595646 0  -0.1330968762779425 -0.6798763971615133 0  2.451109587541276 3.169800318630399e-13 0  -3.563610936250569 0.5929994091167295 0  4.204753319582647 0.2820669554523581 0  -0.4390897559348154 0.6178095532273566 0  -3.041446812595122 1.175550440315544 0  -0.9622132806516797 1.132103015222783 0  1.069493318942931 -0.773608156980569 0  -4.924330687080279 -0.7127064269610045 0  -3.024693497948964 -1.195179289656404 0  -0.9648749555625579 -1.256854520022574 0  -3.443624282349383 -0.2044158249759613 0  -0.5611500783757608 -0.1747080110423833 0  1.60270880116926 0.7487034276124258 0  3.488352576142236 -0.8228939860777884 0  4.816375011670135 -0.8163750116689444 0  3.243628045085357 0.8578172796997985 0  -4.228632884234073 1.228069101636678 0  -2.365220384435482 -1.356128547810356 0  -1.637465979486354 1.3571687267915 0  -1.642380978561139 -1.359365080147485 0  -2.362988915989869 1.356737096243695 0  -5.134120367293631 0.8356299802910161 0  2.077496878467794 -0.9514080034522553 0  4.960859291178299 0.9608592911785537 0  0.3293120056474302 1.148965409695154 0  -5.157560560414062 0.09447106214747865 0  -3.14779387667392 -0.6330563038825547 0  -3.148134455585257 0.4354299640428653 0  -0.8464439673630421 0.4159277415926296 0  -0.9918125625721008 -0.7191748422889824 0  -4.355349213295776 -1.234510499778242 0  1.582074659164868 -0.06850205959954866 0  2.400584045214166 1.204278622181321 0  5.102831660739063 0.03453404176596848 0  4.083259768981113 1.154272958349666 0  -3.992394834362243 -0.1621022234411988 0  0.4290302718942113 -1.225465289645401 0  -3.681487986394671 -1.310544246656267 0  -3.640289698916164 1.187023654838123 0  0.468851680921228 -0.447055967952278 0  3.315209904217932 0.05667935655546536 0  -2.541160649745046 -1.046980928586996 0  -1.45196684542695 1.044189935346116 0  -2.000844595891861 -1.207983108473125 0  -1.453092202970521 -1.061139264918894 0  -2.000050543938391 1.207806685704176 0  -2.548033154566413 1.04418993534851 0  4.13054585796652 -1.232871249381608 0  -0.3301617095463629 1.221692405319566 0  -0.2880491989587189 -1.359626628407983 0  -0.0758941643813178 0.132275811829787 0  2.826389221580753 -1.233168480096227 0  -2.922070412327736 0.7575752117792038 0  1.003070890178416 1.271347915034201 0  -5.319521816151902 -1.310543894393663 0  -1.070407062963812 0.7877698545098388 0  -4.562499863038985 -0.2302396981426722 0  -3.164226661545047 0.07179577787350272 0  -0.9091377812900333 0.132454654016971 0  4.116029045943655 -0.4851826871817362 0  5.316659189209927 -1.316659189208741 0  -0.9498828454673396 -0.4149758979014553 0  -4.037769805263969 0.6896174350675625 0  1.431664772855882 -1.327784137638992 0  -3.646693623568034 0.1600006358878044 0  -2.878371345483476 -0.7910345833001061 0  1.062603041385242 0.2894765870627741 0  -0.547955103783681 0.1635272504420374 0  -4.804809838419659 1.41016301576038 0  -3.042895319571192 -0.3694931303482478 0  -4.59252578392403 0.792267765362792 0  2.823271260730033 -0.5472430318427347 0  -4.28575390662405 -0.7521491832384866 0  -0.5524005545121191 -0.9037367558558163 0  1.815219025072439 1.388812135783969 0  -1.288398729718543 -0.8178399475601057 0  -5.424388493366639 1.35375165044146 0  -2.256991952837567 -1.049538527273222 0  -1.739586738723494 -1.052327527873255 0  -1.738827359988536 1.050180627239116 0  -2.257795730428802 1.049701225145305 0  -0.62222340523776 -0.5483611729237363 0  2.065188519029698 0.5424877383589943 0  0.1055865106318892 0.7347782870471022 0  1.013082573993895 -0.2061877611231605 0  -5.428323520618333 -0.4386412085227075 0  5.374041502384443 -0.5304401760993408 0  3.435185060219232 -1.377658617395091 0  -3.302377238490527 0.8841390072780534 0  -0.9902123298072768 -0.124175295282554 0  0.7186958547669859 0.8724503317343631 0  2.941237214953417 1.390391532351976 0  4.708037787864423 -1.340276032051348 0  5.395029680982659 1.395029680983341 0  3.591022587550188 1.348260650408605 0  2.759385971589342 0.4857447325740718 0  -0.6832705231418494 0.8879387563573758 0  5.437781298507145 0.5981501503262471 0  -2.698603003287285 1.617130043745112 0  -3.463358189947519 -1.013588318179017 0  1.710866040171871 -0.6978716337870808 0  3.642182982762737 0.4555704362064124 0  -2.699802128031161 -1.618310703146212 0  -1.3020054856637 1.619819977935582 0  -2.000000000004996 -1.566396763829867 0  -1.999999999994794 1.566396763830688 0  -1.247812462071684 -1.595232739507426 0  4.59429106759859 1.420052135572917 0  0.9448382581152466 -1.440259145469251 0  -0.116376100998861 -0.2606209011258676 0  -4.774521510507792 0.4245390872783272 0  -2.983910172370106 -0.1208000607277856 0  -3.353983741142061 1.576062863985777 0  -5.473352579109997 0.4917619255280954 0  -4.828650470275986 -1.493148538517745 0  4.639973657165532 -0.2833178611094909 0  -2.660279445404468 0.7699932347178977 0  -1.335045190775955 0.7744876666923373 0  -3.395669172689978 0.2584951122361346 0  2.279110606119369 -1.465899541383697 0  4.734317729212562 0.4520963557364723 0  -0.6334913028224612 1.584213953723378 0  2.121854101359879 -0.4289611127787379 0  -3.474459720833238 -0.4977581316675216 0  -1.066539898844178 0.3411379476537602 0  -3.361849707555382 -1.611428512420182 0  -4.099039818938317 0.3306400369415774 0  -2.935324777364672 0.354721898811665 0  -3.973578595052027 1.482940358734671 0  3.784450148635689 -0.0702780807301525 0  -1.191348122671212 -0.5614501189722798 0  -2.838672605956353 -0.5493179047027598 0  -1.184983441257359 0.5617520886612424 0  -2.811184099847449 0.5574240755049175 0  0.2702752249355158 -0.8003643570420809 0  -0.6945947797857237 -1.593893965175195 0  0.001175881878679056 1.504521009023778 0  0.6072931735145096 1.501814722697789 0  -3.991896293645949 -1.047264188412552 0  -3.734097395159253 -0.3261671578666079 0  -5.539652387691843 -0.8857154182585802 0  -4.395061924111849 1.563293728588296 0  0.2258327611651416 -0.08745142624872881 0  -3.774816634825771 0.8676973328379478 0  2.208484493569073 1.6256686312487 0  0.1309939514660535 -1.566169703482512 0  -5.551414360955331 0.9459842275970113 0  -4.04734138658365 -1.51163984963472 0  -4.947145019546805 -0.3299925153029702 0  4.320410447198621 0.6970857582435144 0  -4.707557346727139 -1.000565649857444 0  1.353711468973986 1.582551234446199 0  1.674156483558973 0.3266252271732694 0  -4.039105552973997 -0.4537604746027087 0  0.01051727619263377 -1.088858357362194 0  -0.2234942609176301 0.8619127912343982 0  -2.95903482691863 0.1219373374385197 0  -4.682467695920681 0.0804575682243254 0  5.535750224195656 -0.1525732643419722 0  -4.290083947414376 -0.0005258314026840717 0  1.136102562417988 0.7655312464039168 0  -2.816589394567214 0.9927597419785312 0  -2.645374456162409 -0.7645902451387543 0  4.18414576655837 1.624276131878667 0  0.7127337088822223 -0.9006358935856398 0  1.972418102153911 0.9727040774616764 0  -2.42199174813501 0.8591219219254587 0  -2.418604734200992 -0.8552987735117754 0  -5.573597213364169 -0.03612430678117123 0  2.024792870869397 0.05574071630590883 0  -1.578875191508968 0.861424470724936 0  -1.54706008231699 -0.8630049102346303 0  3.848662181064435 -1.569601980075533 0  -2.000000000003871 -0.9746445732264465 0  -1.99999999
[...]
<PointData  Scalars="f_24"> 
<DataArray  type="Float64"  Name="f_24"  format="ascii">-5.9265226716689106e-03  -5.9265226716689106e-03  0.0000000000000000e+00  0.0000000000000000e+00  -4.5310092482716280e-01  2.4733785885369547e-01  -3.2719596240860731e-02  -5.8102405728453550e-02  -8.3829100216496005e-02  -1.0811200303679346e-01  -1.2982429714338439e-01  -1.4124273746192575e-01  -1.3212659246535813e-01  -5.1574274795384512e-02  7.7339234004700552e-02  1.8956202799048752e-01  2.4752076443257870e-01  2.6677189493856390e-01  2.6269786809040691e-01  2.4840323514106363e-01  2.2937525338941958e-01  2.0698243210478195e-01  1.8259629901861626e-01  1.5809589070685087e-01  1.3259665485341049e-01  1.0634731409684220e-01  7.9946308518983419e-02  5.3490723041374567e-02  2.6935864251822792e-02  0.0000000000000000e+00  0.0000000000000000e+00  0.0000000000000000e+00  0.0000000000000000e+00  0.0000000000000000e+00  0.0000000000000000e+00  0.0000000000000000e+00  2.6916500976498749e-02  5.3557787540218733e-02  8.0164280254777787e-02  1.0660008634093912e-01  1.3249438292255622e-01  1.5803550412087269e-01  1.8297717139974465e-01  2.0703585897612373e-01  2.2881149782678945e-01  2.4845476360462398e-01  2.6268181200338048e-01  2.6596179713147650e-01  2.4866625882455637e-01  1.8851007334280975e-01  7.8415158973222848e-02  -5.1751407278271891e-02  -1.3215829478942315e-01  -1.4107384873152906e-01  -1.2995145491252155e-01  -1.0800256599246796e-01  -8.3574524164081260e-02  -5.8544603753563636e-02  -3.2629617051773308e-02  -5.9265226716689106e-03  -5.9265226716689106e-03  -5.9265226716689106e-03  -5.9265226716689106e-03  -5.9265226716689106e-03  -5.9265226716689106e-03  -5.9265226716689106e-03  -4.4389956186493773e-01  -4.2152588807084346e-01  -3.6816592164953699e-01  -2.8236546508234367e-01  -1.7918802582744875e-01  -5.8047486344244177e-02  5.9945154797957666e-02  1.5730820599678522e-01  2.1446863442099001e-01  2.4000516473608657e-01  2.4597066806709089e-01  2.4727405872000868e-01  2.4714145369354473e-01  2.4600989302685039e-01  2.3914850398388007e-01  2.1545904589169010e-01  1.5788215296101368e-01  5.9788409836981943e-02  -5.8002731534042784e-02  -1.7864210372947067e-01  -2.8330203946355581e-01  -3.6723019074311924e-01  -4.1896002450537273e-01  -4.4562648919588643e-01  2.4645076832266238e-01  -9.9674866401906398e-02  -1.3568956870206086e-01  2.4997135721021135e-01  1.8019081679991839e-01  -1.6424804781568197e-01  9.4417165560736718e-02  2.4446934562450098e-01  -1.4203498810842874e-01  1.8954973896946109e-01  2.3631929524809117e-01  -6.4594811517435166e-02  -1.4033154369555015e-01  1.8376577668161220e-01  -2.0904905946290608e-01  2.4558983163529269e-01  2.1780538344507200e-01  1.3140275712613309e-01  6.2768588212883489e-02  1.4378024527117322e-01  -9.5988545861013963e-02  -1.1205589724949286e-01  3.0456626815508689e-02  2.9123686378028146e-02  -1.1173033622865165e-01  -5.2446096008334858e-02  1.9906102811457510e-01  5.5285511172665419e-02  2.5394034036535817e-01  -5.3593831355081653e-02  -2.1366941468302750e-01  -2.4978083094710529e-01  2.3718021217727628e-01  2.1642854838068698e-01  -8.9862982910818290e-02  2.1609925566590180e-01  1.8533095241808639e-01  4.7475763730028819e-02  1.0144335744868324e-01  -1.3672509894733686e-01  2.5366378042376730e-01  -1.1702773973929066e-01  -1.2100909127526342e-01  2.4714826784539268e-01  1.3924348384374591e-01  -1.6876018053089939e-01  1.0686342831954175e-01  -6.7031732940178779e-02  1.0457424072162982e-01  -6.6825935491163321e-02  -1.7013080160977698e-01  9.8960415579172623e-02  2.4378409206259641e-01  2.4592264130414865e-01  2.4938788176603652e-01  1.6501372948745030e-01  -2.2317886200834769e-01  2.4173316703245548e-01  -4.1485291033200367e-02  2.0273406863217527e-01  -9.0429897176902765e-02  -2.8321212958710407e-01  2.4347770997975463e-01  9.9078134765333212e-02  3.6402842559855181e-02  2.3588911259488679e-01  -1.1885253105896473e-01  2.2764952148184944e-01  -1.7787522363721572e-01  -2.1980760430374183e-01  2.3352492322285101e-01  2.4576327962244418e-01  -6.7480269542208107e-02  -2.9091896687541885e-01  -8.2645263548641282e-02  1.6356599117964027e-01  -1.0090652942969264e-01  2.3554243339260741e-01  2.1224134053551966e-01  1.8136889699931555e-01  -3.6029086290577036e-02  -1.3874250267196747e-01  2.6689391608319131e-02  2.7422815469590529e-02  -1.3882462298006873e-01  2.4041163770115445e-01  1.9804480773342856e-01  2.5167773954591083e-01  2.3461399989394205e-01  -3.7159090216513313e-02  3.3217986550982209e-02  1.3491542016774877e-01  -1.6095255362318775e-01  2.4404005223380767e-01  2.4604207728497585e-01  1.5967964338183102e-01  6.8752577975207591e-02  3.2333042773154380e-02  1.2693775489403908e-01  1.6650036998313308e-01  2.2835574725026170e-01  2.9895971266383031e-02  -1.1842662619538741e-01  -1.3801819513800861e-01  2.1341501264542811e-01  1.2321025738130248e-01  -1.1852508854961527e-01  1.1423732993737970e-01  -4.6534407561282756e-02  -4.6496325743060021e-02  1.2721458762193197e-01  7.4847277027109194e-02  2.4473633345754547e-01  2.4938359726587542e-01  -7.5455961847669561e-02  -3.5215514034249307e-01  -1.2240947175336842e-01  -3.4759544323220988e-02  -6.6147098661419268e-02  7.1782483824230872e-02  -2.5362155884436499e-01  1.8672727345580239e-01  -2.1324462321758522e-01  1.9172009818304964e-01  6.6942256966553135e-02  2.2121365692070458e-01  1.9526130226008984e-01  -1.8275493082472241e-01  2.4010680618479721e-01  -1.2317220509642385e-01  -1.2436400751761804e-01  -3.3276447151773186e-01  -1.0481930480595239e-01  1.1579678843944222e-01  2.2625755990639354e-01  -3.0525006552519068e-01  2.2670406543628385e-01  -3.1162821875962898e-01  2.5194166028304193e-01  2.1667427101721651e-01  2.5423891108775970e-01  2.5269692473965022e-01  -1.1014186828556767e-01  -1.6058370346445858e-01  -3.0431972727484720e-02  -8.6968566962014271e-02  2.4852987432465326e-01  -1.2913679990438123e-01  1.9546369639201955e-01  2.5707687773523130e-01  -2.9803174941369158e-02  -1.0197545988731818e-01  -6.5458375625845389e-02  8.8692117490209027e-02  -7.4094042018817446e-02  2.3169918721177740e-01  2.1327051927086146e-01  -1.2628073411675186e-01  2.5284416301583384e-01  2.4905582118517722e-01  -3.6465682406023664e-01  -8.2835397433400737e-02  2.4601700447893522e-02  -1.1142982175898282e-01  2.3415839504847868e-01  -1.7654232826228763e-01  -2.5645762339564521e-01  9.6607436650436626e-02  2.4645074969135988e-01  2.0379561334630178e-01  -2.1192855395312188e-01  -2.1153422299693889e-01  -2.9237478049916259e-02  1.9874308955404893e-01  1.3297037530526665e-01  1.3818938576208623e-01  1.1379619636649145e-01  -5.0692268773567729e-02  -5.0631908257240427e-02  -1.3474533199559036e-01  1.2346427998972426e-01  1.6083120119500344e-01  2.4232029941362915e-01  2.1075361340356695e-02  2.2148187049009064e-02  1.6432295986716897e-01  1.2602832642494424e-01  1.6892881135569332e-01  1.7852910306063063e-01  8.5973475177321679e-02  9.2767359812398614e-02  2.1569980809821790e-01  2.5038394699343475e-01  -2.3179749184794304e-01  1.6030045235033882e-01  -1.3415628187019080e-01  -2.0762978551524522e-01  1.0997787818416702e-01  1.4175514396627695e-01  5.3411206898422096e-02  2.4804648472815885e-01  2.4972497828775722e-01  2.4425894198604611e-01  1.1884565938082162e-01  1.6965912033305475e-01  -1.6482994745433496e-01  2.5515123847448618e-01  -1.5067510460421601e-01  -2.7388875394453317e-02  1.4699984102929109e-01  2.4195872025490531e-01  -6.8026616281594093e-02  -1.3243778391917529e-01  2.2640399215501164e-01  -8.4619010226005473e-02  1.5280170658415990e-01  2.3144684530839146e-01  2.3476364425588517e-01  -9.0872973611945365e-02  2.4596039763875557e-02  2.6076588295024045e-02  -9.0800060205141336e-02  2.2586442323677486e-01  -1.2892762634533939e-01  1.4509999045705843e-01  2.1890157245629097e-01  2.1144888049742155e-02  -5.3680469358939949e-02  -2.9272436859718542e-01  -1.1548380122658443e-01  2.4951365728628982e-01  2.2660774939578332e-01  7.6323997158334309e-02  -2.0002270203166689e-01  2.4081986434293290e-01  -4.9780458744582715e-02  -8.3941900304011399e-02  -4.6762197947132086e-02  -2.2191175813914180e-01  -2.6435187936544641e-01  2.4930992014419223e-01  1.1951019188787672e-01  2.4214233237227295e-01  2.2621343597550880e-01  -1.0007445880345910e-01  2.4639054770012594e-01  2.4556344842868555e-01  2.2419696841719697e-02  5.0358879640239163e-02  2.4212295423372285e-01  2.4678490491875030e-01  5.1543933398363884e-02  1.5151168731827153e-01  -5.3014145739954437e-02  1.7492138644907207e-01  2.4194704462727701e-01  -1.7622952383890506e-01  -1.1068105525611531e-01  -2.2032975697713796e-02  2.1516551072837459e-01  -9.7981959717109018e-02  4.3988849521293817e-02  7.4495892204810024e-02  -3.6983420683418800e-01  2.5106998242712275e-01  2.4879427713042318e-01  2.4590365771688283e-01  -2.4827539508470733e-02  1.1662244828804992e-01  9.0777599413395124e-02  -1.1616987044173141e-01  -1.6919851120182858e-01  -5.5664816818748811e-02  1.8236566308489733e-02  2.4311833146410627e-01  1.7668017705832595e-01  1.8206673065820608e-01  2.4736293869492196e-01  2.2725385665623277e-01  -2.6449692321489288e-01  2.3709303346095384e-01  2.5259791259908965e-01  -1.9799609692292230e-02  2.2817973258167695e-01  -1.2518725427091737e-01  -1.4570036678056592e-01  -1.0868474212359257e-01  2.1036739356565998e-01  1.1814072581622853e-01  1.7790931420048006e-01  1.5548682607963545e-02  -1.9906858006019261e-02  -4.9194184322653309e-02  2.1666373122377366e-01  -1.6040312940732016e-01  -1.4726452868123110e-01  -6.9747895900308846e-02  2.5878671449462082e-01  -1.6662110586967879e-01  -1.2680152258405727e-01  -8.1881720826922938e-02  1.0709360554130910e-01  1.8396915323631940e-01  4.8454050204168687e-02  2.0857625087106754e-01  -1.2511553203767520e-01  2.4392967690007519e-01  2.4744513823840045e-01  -6.7474317269481124e-02  1.4419405186315526e-01  -1.3403851006341955e-01  -1.3369030655450609e-01  6.9089731193899231e-02  7.0787029519179395e-02  2.2475121631679726e-01  2.0871504797013821e-01  </DataArray> 
</PointData> 
</Piece>
</UnstructuredGrid>
</VTKFile>