<?xml version="1.0"?>
<VTKFile type="UnstructuredGrid"  version="0.1"  >
<UnstructuredGrid>
<Piece  NumberOfPoints="406" NumberOfCells="722">
<Points>
<DataArray  type="Float64"  NumberOfComponents="3"  format="ascii">-6 -2 0  -6 2 0  6 2 0  6 -2 0  -2.8 0 0  -1.2 0 0  -5.500000000001853 -2 0  -5.000000000003705 -2 0  -4.500000000005556 -2 0  -4.000000000007409 -2 0  -3.50000000000926 -2 0  -3.000000000011112 -2 0  -2.500000000012963 -2 0  -2.000000000014814 -2 0  -1.500000000016665 -2 0  -1.000000000018516 -2 0  -0.5000000000203677 -2 0  -2.204547655537681e-11 -2 0  0.4999999999796305 -2 0  0.9999999999814779 -2 0  1.499999999983327 -2 0  1.999999999985175 -2 0  2.499999999987029 -2 0  2.999999999988882 -2 0  3.499999999990735 -2 0  3.999999999992589 -2 0  4.49999999999444 -2 0  4.999999999996293 -2 0  5.499999999998147 -2 0  6 -1.500000000001387 0  6 -1.000000000002774 0  6 -0.5000000000041616 0  6 -5.505595979116151e-12 0  6 0.4999999999958384 0  6 0.9999999999972258 0  6 1.499999999998613 0  5.500000000001853 2 0  5.000000000003705 2 0  4.500000000005556 2 0  4.000000000007409 2 0  3.50000000000926 2 0  3.000000000011112 2 0  2.500000000012963 2 0  2.000000000014814 2 0  1.500000000016665 2 0  1.000000000018516 2 0  0.5000000000203677 2 0  2.204547655537681e-11 2 0  -0.4999999999796305 2 0  -0.9999999999814779 2 0  -1.499999999983327 2 0  -1.999999999985175 2 0  -2.499999999987029 2 0  -2.999999999988882 2 0  -3.499999999990735 2 0  -3.999999999992589 2 0  -4.49999999999444 2 0  -4.999999999996293 2 0  -5.499999999998147 2 0  -6 1.500000000001387 0  -6 1.000000000002774 0  -6 0.5000000000041616 0  -6 5.505595979116151e-12 0  -6 -0.4999999999958384 0  -6 -0.9999999999972258 0  -6 -1.499999999998613 0  -2.776753453941174 -0.1914525314286965 0  -2.708364820523325 -0.3717785376335722 0  -2.598808598538216 -0.5304981265911284 0  -2.454451797386757 -0.65838709271366 0  -2.283683909636528 -0.748012994147384 0  -2.096429344207466 -0.7941670992780535 0  -1.903570655798842 -0.7941670992788195 0  -1.716316090368095 -0.7480129941491368 0  -1.545548202616307 -0.6583870927157747 0  -1.401191401463757 -0.530498126593356 0  -1.291635179477527 -0.371778537635196 0  -1.223246546059047 -0.1914525314295925 0  -1.223246546058803 0.1914525314286035 0  -1.291635179476594 0.3717785376334188 0  -1.401191401461634 0.5304981265909601 0  -1.545548202612898 0.6583870927134221 0  -1.716316090363093 0.7480129941472402 0  -1.903570655792394 0.7941670992780367 0  -2.096429344201276 0.7941670992788055 0  -2.283683909631911 0.7480129941491347 0  -2.454451797383697 0.6583870927157729 0  -2.598808598536385 0.530498126593196 0  -2.70836482052258 0.3717785376349917 0  -2.776753453940975 0.1914525314295042 0  0.4588466633941945 0.2704149791022056 0  -4.424312812173863 0.2760319703992994 0  -3.803977598762586 -0.6841584599595646 0  -0.1330968762779425 -0.6798763971615133 0  2.451109587541276 3.169800318630399e-13 0  -3.563610936250569 0.5929994091167295 0  4.204753319582647 0.2820669554523581 0  -0.4390897559348154 0.6178095532273566 0  -3.041446812595122 1.175550440315544 0  -0.9622132806516797 1.132103015222783 0  1.069493318942931 -0.773608156980569 0  -4.924330687080279 -0.7127064269610045 0  -3.024693497948964 -1.195179289656404 0  -0.9648749555625579 -1.256854520022574 0  -3.443624282349383 -0.2044158249759613 0  -0.5611500783757608 -0.1747080110423833 0  1.60270880116926 0.7487034276124258 0  3.488352576142236 -0.8228939860777884 0  4.816375011670135 -0.8163750116689444 0  3.243628045085357 0.8578172796997985 0  -4.228632884234073 1.228069101636678 0  -2.365220384435482 -1.356128547810356 0  -1.637465979486354 1.3571687267915 0  -1.642380978561139 -1.359365080147485 0  -2.362988915989869 1.356737096243695 0  -5.134120367293631 0.8356299802910161 0  2.077496878467794 -0.9514080034522553 0  4.960859291178299 0.9608592911785537 0  0.3293120056474302 1.148965409695154 0  -5.157560560414062 0.09447106214747865 0  -3.14779387667392 -0.6330563038825547 0  -3.148134455585257 0.4354299640428653 0  -0.8464439673630421 0.4159277415926296 0  -0.9918125625721008 -0.7191748422889824 0  -4.355349213295776 -1.234510499778242 0  1.582074659164868 -0.06850205959954866 0  2.400584045214166 1.204278622181321 0  5.102831660739063 0.03453404176596848 0  4.083259768981113 1.154272958349666 0  -3.992394834362243 -0.1621022234411988 0  0.4290302718942113 -1.225465289645401 0  -3.681487986394671 -1.310544246656267 0  -3.640289698916164 1.187023654838123 0  0.468851680921228 -0.447055967952278 0  3.315209904217932 0.05667935655546536 0  -2.541160649745046 -1.046980928586996 0  -1.45196684542695 1.044189935346116 0  -2.000844595891861 -1.207983108473125 0  -1.453092202970521 -1.061139264918894 0  -2.000050543938391 1.207806685704176 0  -2.548033154566413 1.04418993534851 0  4.13054585796652 -1.232871249381608 0  -0.3301617095463629 1.221692405319566 0  -0.2880491989587189 -1.359626628407983 0  -0.0758941643813178 0.132275811829787 0  2.826389221580753 -1.233168480096227 0  -2.922070412327736 0.7575752117792038 0  1.003070890178416 1.271347915034201 0  -5.319521816151902 -1.310543894393663 0  -1.070407062963812 0.7877698545098388 0  -4.562499863038985 -0.2302396981426722 0  -3.164226661545047 0.07179577787350272 0  -0.9091377812900333 0.132454654016971 0  4.116029045943655 -0.4851826871817362 0  5.316659189209927 -1.316659189208741 0  -0.9498828454673396 -0.4149758979014553 0  -4.037769805263969 0.6896174350675625 0  1.431664772855882 -1.327784137638992 0  -3.646693623568034 0.1600006358878044 0  -2.878371345483476 -0.7910345833001061 0  1.062603041385242 0.2894765870627741 0  -0.547955103783681 0.1635272504420374 0  -4.804809838419659 1.41016301576038 0  -3.042895319571192 -0.3694931303482478 0  -4.59252578392403 0.792267765362792 0  2.823271260730033 -0.5472430318427347 0  -4.28575390662405 -0.7521491832384866 0  -0.5524005545121191 -0.9037367558558163 0  1.815219025072439 1.388812135783969 0  -1.288398729718543 -0.8178399475601057 0  -5.424388493366639 1.35375165044146 0  -2.256991952837567 -1.049538527273222 0  -1.739586738723494 -1.052327527873255 0  -1.738827359988536 1.050180627239116 0  -2.257795730428802 1.049701225145305 0  -0.62222340523776 -0.5483611729237363 0  2.065188519029698 0.5424877383589943 0  0.1055865106318892 0.7347782870471022 0  1.013082573993895 -0.2061877611231605 0  -5.428323520618333 -0.4386412085227075 0  5.374041502384443 -0.5304401760993408 0  3.435185060219232 -1.377658617395091 0  -3.302377238490527 0.8841390072780534 0  -0.9902123298072768 -0.124175295282554 0  0.7186958547669859 0.8724503317343631 0  2.941237214953417 1.390391532351976 0  4.708037787864423 -1.340276032051348 0  5.395029680982659 1.395029680983341 0  3.591022587550188 1.348260650408605 0  2.759385971589342 0.4857447325740718 0  -0.6832705231418494 0.8879387563573758 0  5.437781298507145 0.5981501503262471 0  -2.698603003287285 1.617130043745112 0  -3.463358189947519 -1.013588318179017 0  1.710866040171871 -0.6978716337870808 0  3.642182982762737 0.4555704362064124 0  -2.699802128031161 -1.618310703146212 0  -1.3020054856637 1.619819977935582 0  -2.000000000004996 -1.566396763829867 0  -1.999999999994794 1.566396763830688 0  -1.247812462071684 -1.595232739507426 0  4.59429106759859 1.420052135572917 0  0.9448382581152466 -1.440259145469251 0  -0.116376100998861 -0.2606209011258676 0  -4.774521510507792 0.4245390872783272 0  -2.983910172370106 -0.1208000607277856 0  -3.353983741142061 1.576062863985777 0  -5.473352579109997 0.4917619255280954 0  -4.828650470275986 -1.493148538517745 0  4.639973657165532 -0.2833178611094909 0  -2.660279445404468 0.7699932347178977 0  -1.335045190775955 0.7744876666923373 0  -3.395669172689978 0.2584951122361346 0  2.279110606119369 -1.465899541383697 0  4.734317729212562 0.4520963557364723 0  -0.6334913028224612 1.584213953723378 0  2.121854101359879 -0.4289611127787379 0  -3.474459720833238 -0.4977581316675216 0  -1.066539898844178 0.3411379476537602 0  -3.361849707555382 -1.611428512420182 0  -4.099039818938317 0.3306400369415774 0  -2.935324777364672 0.354721898811665 0  -3.973578595052027 1.482940358734671 0  3.784450148635689 -0.0702780807301525 0  -1.191348122671212 -0.5614501189722798 0  -2.838672605956353 -0.5493179047027598 0  -1.184983441257359 0.5617520886612424 0  -2.811184099847449 0.5574240755049175 0  0.2702752249355158 -0.8003643570420809 0  -0.6945947797857237 -1.593893965175195 0  0.001175881878679056 1.504521009023778 0  0.6072931735145096 1.501814722697789 0  -3.991896293645949 -1.047264188412552 0  -3.734097395159253 -0.3261671578666079 0  -5.539652387691843 -0.8857154182585802 0  -4.395061924111849 1.563293728588296 0  0.2258327611651416 -0.08745142624872881 0  -3.774816634825771 0.8676973328379478 0  2.208484493569073 1.6256686312487 0  0.1309939514660535 -1.566169703482512 0  -5.551414360955331 0.9459842275970113 0  -4.04734138658365 -1.51163984963472 0  -4.947145019546805 -0.3299925153029702 0  4.320410447198621 0.6970857582435144 0  -4.707557346727139 -1.000565649857444 0  1.353711468973986 1.582551234446199 0  1.674156483558973 0.3266252271732694 0  -4.039105552973997 -0.4537604746027087 0  0.01051727619263377 -1.088858357362194 0  -0.2234942609176301 0.8619127912343982 0  -2.95903482691863 0.1219373374385197 0  -4.682467695920681 0.0804575682243254 0  5.535750224195656 -0.1525732643419722 0  -4.290083947414376 -0.0005258314026840717 0  1.136102562417988 0.7655312464039168 0  -2.816589394567214 0.9927597419785312 0  -2.645374456162409 -0.7645902451387543 0  4.18414576655837 1.624276131878667 0  0.7127337088822223 -0.9006358935856398 0  1.972418102153911 0.9727040774616764 0  -2.42199174813501 0.8591219219254587 0  -2.418604734200992 -0.8552987735117754 0  -5.573597213364169 -0.03612430678117123 0  2.024792870869397 0.05574071630590883 0  -1.578875191508968 0.861424470724936 0  -1.54706008231699 -0.8630049102346303 0  3.848662181064435 -1.569601980075533 0  -2.000000000003871 -0.9746445732264465 0  -1.99999999
[...]
<PointData  Scalars="f_24"> 
<DataArray  type="Float64"  Name="f_24"  format="ascii">-9.6693514293132110e-01  -9.6693514293132110e-01  0.0000000000000000e+00  0.0000000000000000e+00  -1.1070567373818643e+00  -2.7746183189386497e-01  -9.5135166466905041e-01  -9.3582713765330661e-01  -9.1807450931901147e-01  -8.9838802277379814e-01  -8.7452418629397610e-01  -8.3522806012768280e-01  -7.7315776063505037e-01  -6.5267220332553766e-01  -4.9737294029360357e-01  -3.6236108958404301e-01  -2.7481221267986161e-01  -2.2211197036599226e-01  -1.8777809411921706e-01  -1.6285925782403227e-01  -1.4225847959331792e-01  -1.2464886283481599e-01  -1.0684986081771479e-01  -9.1582723822459064e-02  -7.5783113416839604e-02  -6.0158247963684873e-02  -4.4835828233206754e-02  -2.9673471101123047e-02  -1.5272138196504510e-02  0.0000000000000000e+00  0.0000000000000000e+00  0.0000000000000000e+00  0.0000000000000000e+00  0.0000000000000000e+00  0.0000000000000000e+00  0.0000000000000000e+00  -1.5225232758789819e-02  -2.9899086480030763e-02  -4.4883934922663501e-02  -6.0590828408941602e-02  -7.5629380112174960e-02  -9.1299362785370680e-02  -1.0742673619809470e-01  -1.2442608494901040e-01  -1.4212112841682034e-01  -1.6269660869110431e-01  -1.8773141292499776e-01  -2.2227756769882276e-01  -2.7395550229566279e-01  -3.6342858872793293e-01  -4.9637675373022755e-01  -6.5279872873264089e-01  -7.7321493322916146e-01  -8.3497896581160136e-01  -8.7466436602857611e-01  -8.9839007883175059e-01  -9.1887199699940414e-01  -9.3531080575889425e-01  -9.5146995718836302e-01  -9.6693514293132110e-01  -9.6693514293132110e-01  -9.6693514293132110e-01  -9.6693514293132110e-01  -9.6693514293132110e-01  -9.6693514293132110e-01  -9.6693514293132110e-01  -1.1011000600688492e+00  -1.0825368922465435e+00  -1.0271724600747050e+00  -9.2940793493947316e-01  -8.0402146384573558e-01  -6.5952699994722797e-01  -5.2299096781005727e-01  -4.1247068846350188e-01  -3.4347739813931721e-01  -3.0631765644300685e-01  -2.8931944308771917e-01  -2.8035716860876408e-01  -2.8032703383033841e-01  -2.8927060125706983e-01  -3.0714920102886684e-01  -3.4296015011398762e-01  -4.1204072811100312e-01  -5.2318743233029952e-01  -6.5952903453031142e-01  -8.0358721892352913e-01  -9.2998239874422761e-01  -1.0265065959845818e+00  -1.0804539601755045e+00  -1.1025808569819233e+00  -2.0145313687220087e-01  -9.2992010226150179e-01  -9.1426799616412024e-01  -2.4025550625827352e-01  -1.1264613291707842e-01  -9.2192947159908245e-01  -5.4817569425781157e-02  -2.6229122141383160e-01  -8.5110474464331232e-01  -3.4647684996260963e-01  -1.6662389339907371e-01  -9.3637290737675427e-01  -8.4755345834504192e-01  -3.5474880859561009e-01  -9.5396979286781380e-01  -2.6307904046582997e-01  -1.4333892065491707e-01  -7.7029530914567559e-02  -3.5791508366447816e-02  -8.4818560484637026e-02  -9.0937057536747490e-01  -7.4341212298333570e-01  -5.3720983670245614e-01  -5.3879376651661681e-01  -7.4285507961516262e-01  -9.4160516871363931e-01  -1.2446025345946028e-01  -3.1387301527705802e-02  -2.0635971799206454e-01  -9.4474452692692135e-01  -9.3255043728806630e-01  -9.6605647785306525e-01  -2.8421616462786770e-01  -3.1401915326936514e-01  -9.1376620498069805e-01  -1.4621455295804886e-01  -1.1230696714653735e-01  -2.7219840362020055e-02  -5.8189995638785193e-02  -9.3060850440637888e-01  -1.9945217006511501e-01  -8.8375613901510319e-01  -8.8505458589304709e-01  -2.0049302575053471e-01  -8.3205054866877848e-02  -8.1676504368856795e-01  -4.4387956110401683e-01  -6.5328459868982780e-01  -4.4654419864148731e-01  -6.5304365645510909e-01  -8.1915574199527119e-01  -5.6623455492140970e-02  -2.6256400906932936e-01  -2.5847888528594354e-01  -2.3410134914684061e-01  -9.7921416207258069e-02  -9.1830035532420851e-01  -1.6732456318491543e-01  -9.4580911740789630e-01  -3.3135915890875817e-01  -9.3216282295194397e-01  -9.9743758582936437e-01  -2.7702165631826736e-01  -5.7497675708341446e-02  -2.0532463972171559e-02  -2.8892994608871481e-01  -9.1706195092204201e-01  -1.4799966603297454e-01  -9.4156799899990828e-01  -9.1022678471895457e-01  -1.6926582183233893e-01  -2.6239485719140804e-01  -9.2879209463317869e-01  -9.9379588805516050e-01  -9.2692371897890524e-01  -9.9198138370040961e-02  -9.1973866887484224e-01  -2.7998723583152807e-01  -1.3281253791978778e-01  -3.6140094561142189e-01  -9.4905560889447693e-01  -7.4833378778060455e-01  -5.3695917612832578e-01  -5.3623651731016553e-01  -7.4854431456806303e-01  -2.7400283567284728e-01  -1.2605027597521107e-01  -2.2302417618905471e-01  -1.7191727035301255e-01  -9.5081444325661102e-01  -1.8930496048092015e-02  -7.8168583102481259e-02  -8.9591378897408902e-01  -2.7863283867104910e-01  -1.8400812905969474e-01  -9.3986920616817876e-02  -3.8910354327703289e-02  -1.8153952695386319e-02  -7.3388039243353367e-02  -1.0144101728206027e-01  -2.9314986305614255e-01  -1.6973115765986743e-02  -7.8798316882412567e-01  -8.8726696528001303e-01  -1.3914820709914802e-01  -7.2474610914044835e-02  -7.8814840543578424e-01  -4.4602724440513408e-01  -6.4634595394380190e-01  -6.4635245602949365e-01  -4.3004238980201054e-01  -4.2343551684484150e-02  -1.6937393171604631e-01  -2.3694231304956492e-01  -9.3484525995974133e-01  -1.0408161635829747e+00  -8.5738517721513940e-01  -9.5213031174802665e-01  -9.2922277012573429e-01  -4.1361652022612869e-02  -9.1605283273495997e-01  -3.5813955865258917e-01  -9.5400764009499706e-01  -1.1596632618689361e-01  -3.8424160806379518e-02  -3.0512193844637037e-01  -1.2422136787551789e-01  -9.3204872172570485e-01  -2.8737424266383521e-01  -8.5833006757728725e-01  -9.2739491451903289e-01  -1.0208689907324999e+00  -8.9554629200434344e-01  -6.8087604384822045e-02  -3.0991027685083583e-01  -9.8711349996280173e-01  -3.0932279406893814e-01  -9.9013465922320965e-01  -2.1156326014375135e-01  -3.1364346935184811e-01  -2.3097011318225236e-01  -1.8745191570980885e-01  -9.0422301260869242e-01  -9.3242381717397771e-01  -9.5325343844874100e-01  -9.1344101922588472e-01  -2.1544534803770804e-01  -9.0532675455982115e-01  -1.1812021054906753e-01  -2.1923509032213837e-01  -9.5357373568655923e-01  -8.9878897484099884e-01  -9.3915485315689640e-01  -5.1083582841253299e-02  -9.2772545874361734e-01  -1.5044627408900679e-01  -1.4186423596625208e-01  -9.2435664098820547e-01  -2.3037408623126462e-01  -2.4821848417453726e-01  -1.0490736295444536e+00  -9.3455483877147449e-01  -1.4069067295807848e-02  -9.3039972232461465e-01  -1.6352670334394293e-01  -8.6067907157470724e-01  -9.1692970565184861e-01  -5.4930474497059935e-02  -1.8425048937582139e-01  -1.2815167503424890e-01  -8.4366159037751831e-01  -8.4299234701320991e-01  -9.5497110255420659e-01  -1.2839862505979296e-01  -4.2446587144909698e-01  -4.1725850995783159e-01  -6.5210734131554524e-02  -6.3361904589093987e-01  -6.3362372024378621e-01  -8.1150896650369109e-01  -7.1874252730633498e-02  -3.8129355704327111e-01  -1.8941112080596081e-01  -1.1809039503857081e-02  -1.2523630257081440e-02  -9.8260221191484573e-02  -4.2437004360166036e-01  -3.7163232622450587e-01  -1.0864615715812409e-01  -4.9376635816660498e-02  -5.2830749836468190e-02  -1.3433255387267654e-01  -2.2102576390975481e-01  -9.6014724369519988e-01  -9.7728421933879567e-02  -8.1105735008847146e-01  -9.2608252207840469e-01  -6.3714912412329142e-02  -8.4501460744606807e-02  -3.0089251219655937e-02  -2.5000430403119839e-01  -2.3789836361730837e-01  -2.7147954439523397e-01  -4.3236463666956187e-01  -1.0002951672392515e-01  -8.8366317035100073e-01  -1.8705449163318749e-01  -9.2690002143615080e-01  -9.5439903688102956e-01  -8.8056740871140293e-02  -2.7564751932428677e-01  -9.3112584938690479e-01  -8.7018020305448840e-01  -2.9518467477854321e-01  -9.1559740695169112e-01  -9.0779255017618410e-02  -2.9088215022042818e-01  -1.5307869526169654e-01  -7.2001568392249682e-01  -5.5703049221515988e-01  -5.5495575881680570e-01  -7.1994262280623045e-01  -1.4808486407916813e-01  -8.6326946053413323e-01  -8.4056820064917229e-02  -3.0706275348237644e-01  -1.1861858001268334e-02  -9.3970899231083427e-01  -9.9952793734662704e-01  -8.8226119519326585e-01  -1.8576245988737272e-01  -1.5674232797049706e-01  -4.3526452389380847e-02  -9.3595725586329759e-01  -1.8070917561608368e-01  -9.4031097329697355e-01  -9.3011671250887684e-01  -9.4223308676853801e-01  -9.6255466490193486e-01  -9.8524581619828133e-01  -2.1930805649695773e-01  -7.0113343667916272e-02  -2.7033236210059147e-01  -1.5077399314548498e-01  -9.2497796876952398e-01  -2.5636105833873624e-01  -2.7868679403192953e-01  -1.2804626413819426e-02  -2.8355841970995117e-02  -2.8698401784639349e-01  -2.6002410048581298e-01  -2.9541014932634918e-02  -8.8278029021062035e-02  -9.3902204325018479e-01  -1.0347205619136884e-01  -1.8414324697866069e-01  -9.4163792522124345e-01  -9.0292870384425317e-01  -9.5768206288616520e-01  -3.1261848703375233e-01  -9.1673574821960024e-01  -2.4921554161674835e-02  -4.3002340005902757e-02  -1.0470402414491486e+00  -2.5281275519831709e-01  -2.0177985691042077e-01  -1.6845858768299160e-01  -9.5597949313472352e-01  -6.6703302081824040e-02  -5.2740332655366290e-02  -8.7942348507049484e-01  -8.4919355962825360e-01  -9.4208217370120095e-01  -1.0110822280204448e-02  -2.7277931518929271e-01  -1.0930439967942693e-01  -1.1192552610752100e-01  -2.5255469349294829e-01  -1.6067420747309979e-01  -9.6497478149684901e-01  -1.6331871486948349e-01  -2.3297639302169038e-01  -9.5897036347710840e-01  -2.9978996405616060e-01  -8.3111279205591126e-01  -9.3285607402959703e-01  -9.2798171463728718e-01  -1.3208895673011334e-01  -6.8276866861741392e-02  -3.6437911801374423e-01  -8.7329160763261193e-03  -9.5945532713351012e-01  -9.4405724502440924e-01  -1.3422912261229084e-01  -9.0774846833951950e-01  -9.0311019192684394e-01  -9.2711259440113203e-01  -2.0497448397308696e-01  -8.8037185117418826e-01  -9.0028715255886549e-01  -9.2045018837133619e-01  -6.2171419621666626e-02  -1.1501071208377520e-01  -2.7710741622406103e-02  -3.3967418178166126e-01  -8.3074629034970326e-01  -2.6171652877697504e-01  -2.5340164744259397e-01  -9.3506262054721379e-01  -8.4403157806106896e-02  -7.4205444460654002e-01  -7.4164655847812422e-01  -5.0114386226272256e-01  -4.9906668619009170e-01  -1.5467060592232157e-01  -1.3713696117504051e-01  </DataArray> 
</PointData> 
</Piece>
</UnstructuredGrid>
</VTKFile>