<?xml version="1.0"?>
<VTKFile type="UnstructuredGrid"  version="0.1"  >
<UnstructuredGrid>
<Piece  NumberOfPoints="406" NumberOfCells="722">
<Points>
<DataArray  type="Float64"  NumberOfComponents="3"  format="ascii">-6 -2 0  -6 2 0  6 2 0  6 -2 0  -2.8 0 0  -1.2 0 0  -5.500000000001853 -2 0  -5.000000000003705 -2 0  -4.500000000005556 -2 0  -4.000000000007409 -2 0  -3.50000000000926 -2 0  -3.000000000011112 -2 0  -2.500000000012963 -2 0  -2.000000000014814 -2 0  -1.500000000016665 -2 0  -1.000000000018516 -2 0  -0.5000000000203677 -2 0  -2.204547655537681e-11 -2 0  0.4999999999796305 -2 0  0.9999999999814779 -2 0  1.499999999983327 -2 0  1.999999999985175 -2 0  2.499999999987029 -2 0  2.999999999988882 -2 0  3.499999999990735 -2 0  3.999999999992589 -2 0  4.49999999999444 -2 0  4.999999999996293 -2 0  5.499999999998147 -2 0  6 -1.500000000001387 0  6 -1.000000000002774 0  6 -0.5000000000041616 0  6 -5.505595979116151e-12 0  6 0.4999999999958384 0  6 0.9999999999972258 0  6 1.499999999998613 0  5.500000000001853 2 0  5.000000000003705 2 0  4.500000000005556 2 0  4.000000000007409 2 0  3.50000000000926 2 0  3.000000000011112 2 0  2.500000000012963 2 0  2.000000000014814 2 0  1.500000000016665 2 0  1.000000000018516 2 0  0.5000000000203677 2 0  2.204547655537681e-11 2 0  -0.4999999999796305 2 0  -0.9999999999814779 2 0  -1.499999999983327 2 0  -1.999999999985175 2 0  -2.499999999987029 2 0  -2.999999999988882 2 0  -3.499999999990735 2 0  -3.999999999992589 2 0  -4.49999999999444 2 0  -4.999999999996293 2 0  -5.499999999998147 2 0  -6 1.500000000001387 0  -6 1.000000000002774 0  -6 0.5000000000041616 0  -6 5.505595979116151e-12 0  -6 -0.4999999999958384 0  -6 -0.9999999999972258 0  -6 -1.499999999998613 0  -2.776753453941174 -0.1914525314286965 0  -2.708364820523325 -0.3717785376335722 0  -2.598808598538216 -0.5304981265911284 0  -2.454451797386757 -0.65838709271366 0  -2.283683909636528 -0.748012994147384 0  -2.096429344207466 -0.7941670992780535 0  -1.903570655798842 -0.7941670992788195 0  -1.716316090368095 -0.7480129941491368 0  -1.545548202616307 -0.6583870927157747 0  -1.401191401463757 -0.530498126593356 0  -1.291635179477527 -0.371778537635196 0  -1.223246546059047 -0.1914525314295925 0  -1.223246546058803 0.1914525314286035 0  -1.291635179476594 0.3717785376334188 0  -1.401191401461634 0.5304981265909601 0  -1.545548202612898 0.6583870927134221 0  -1.716316090363093 0.7480129941472402 0  -1.903570655792394 0.7941670992780367 0  -2.096429344201276 0.7941670992788055 0  -2.283683909631911 0.7480129941491347 0  -2.454451797383697 0.6583870927157729 0  -2.598808598536385 0.530498126593196 0  -2.70836482052258 0.3717785376349917 0  -2.776753453940975 0.1914525314295042 0  0.4588466633941945 0.2704149791022056 0  -4.424312812173863 0.2760319703992994 0  -3.803977598762586 -0.6841584599595646 0  -0.1330968762779425 -0.6798763971615133 0  2.451109587541276 3.169800318630399e-13 0  -3.563610936250569 0.5929994091167295 0  4.204753319582647 0.2820669554523581 0  -0.4390897559348154 0.6178095532273566 0  -3.041446812595122 1.175550440315544 0  -0.9622132806516797 1.132103015222783 0  1.069493318942931 -0.773608156980569 0  -4.924330687080279 -0.7127064269610045 0  -3.024693497948964 -1.195179289656404 0  -0.9648749555625579 -1.256854520022574 0  -3.443624282349383 -0.2044158249759613 0  -0.5611500783757608 -0.1747080110423833 0  1.60270880116926 0.7487034276124258 0  3.488352576142236 -0.8228939860777884 0  4.816375011670135 -0.8163750116689444 0  3.243628045085357 0.8578172796997985 0  -4.228632884234073 1.228069101636678 0  -2.365220384435482 -1.356128547810356 0  -1.637465979486354 1.3571687267915 0  -1.642380978561139 -1.359365080147485 0  -2.362988915989869 1.356737096243695 0  -5.134120367293631 0.8356299802910161 0  2.077496878467794 -0.9514080034522553 0  4.960859291178299 0.9608592911785537 0  0.3293120056474302 1.148965409695154 0  -5.157560560414062 0.09447106214747865 0  -3.14779387667392 -0.6330563038825547 0  -3.148134455585257 0.4354299640428653 0  -0.8464439673630421 0.4159277415926296 0  -0.9918125625721008 -0.7191748422889824 0  -4.355349213295776 -1.234510499778242 0  1.582074659164868 -0.06850205959954866 0  2.400584045214166 1.204278622181321 0  5.102831660739063 0.03453404176596848 0  4.083259768981113 1.154272958349666 0  -3.992394834362243 -0.1621022234411988 0  0.4290302718942113 -1.225465289645401 0  -3.681487986394671 -1.310544246656267 0  -3.640289698916164 1.187023654838123 0  0.468851680921228 -0.447055967952278 0  3.315209904217932 0.05667935655546536 0  -2.541160649745046 -1.046980928586996 0  -1.45196684542695 1.044189935346116 0  -2.000844595891861 -1.207983108473125 0  -1.453092202970521 -1.061139264918894 0  -2.000050543938391 1.207806685704176 0  -2.548033154566413 1.04418993534851 0  4.13054585796652 -1.232871249381608 0  -0.3301617095463629 1.221692405319566 0  -0.2880491989587189 -1.359626628407983 0  -0.0758941643813178 0.132275811829787 0  2.826389221580753 -1.233168480096227 0  -2.922070412327736 0.7575752117792038 0  1.003070890178416 1.271347915034201 0  -5.319521816151902 -1.310543894393663 0  -1.070407062963812 0.7877698545098388 0  -4.562499863038985 -0.2302396981426722 0  -3.164226661545047 0.07179577787350272 0  -0.9091377812900333 0.132454654016971 0  4.116029045943655 -0.4851826871817362 0  5.316659189209927 -1.316659189208741 0  -0.9498828454673396 -0.4149758979014553 0  -4.037769805263969 0.6896174350675625 0  1.431664772855882 -1.327784137638992 0  -3.646693623568034 0.1600006358878044 0  -2.878371345483476 -0.7910345833001061 0  1.062603041385242 0.2894765870627741 0  -0.547955103783681 0.1635272504420374 0  -4.804809838419659 1.41016301576038 0  -3.042895319571192 -0.3694931303482478 0  -4.59252578392403 0.792267765362792 0  2.823271260730033 -0.5472430318427347 0  -4.28575390662405 -0.7521491832384866 0  -0.5524005545121191 -0.9037367558558163 0  1.815219025072439 1.388812135783969 0  -1.288398729718543 -0.8178399475601057 0  -5.424388493366639 1.35375165044146 0  -2.256991952837567 -1.049538527273222 0  -1.739586738723494 -1.052327527873255 0  -1.738827359988536 1.050180627239116 0  -2.257795730428802 1.049701225145305 0  -0.62222340523776 -0.5483611729237363 0  2.065188519029698 0.5424877383589943 0  0.1055865106318892 0.7347782870471022 0  1.013082573993895 -0.2061877611231605 0  -5.428323520618333 -0.4386412085227075 0  5.374041502384443 -0.5304401760993408 0  3.435185060219232 -1.377658617395091 0  -3.302377238490527 0.8841390072780534 0  -0.9902123298072768 -0.124175295282554 0  0.7186958547669859 0.8724503317343631 0  2.941237214953417 1.390391532351976 0  4.708037787864423 -1.340276032051348 0  5.395029680982659 1.395029680983341 0  3.591022587550188 1.348260650408605 0  2.759385971589342 0.4857447325740718 0  -0.6832705231418494 0.8879387563573758 0  5.437781298507145 0.5981501503262471 0  -2.698603003287285 1.617130043745112 0  -3.463358189947519 -1.013588318179017 0  1.710866040171871 -0.6978716337870808 0  3.642182982762737 0.4555704362064124 0  -2.699802128031161 -1.618310703146212 0  -1.3020054856637 1.619819977935582 0  -2.000000000004996 -1.566396763829867 0  -1.999999999994794 1.566396763830688 0  -1.247812462071684 -1.595232739507426 0  4.59429106759859 1.420052135572917 0  0.9448382581152466 -1.440259145469251 0  -0.116376100998861 -0.2606209011258676 0  -4.774521510507792 0.4245390872783272 0  -2.983910172370106 -0.1208000607277856 0  -3.353983741142061 1.576062863985777 0  -5.473352579109997 0.4917619255280954 0  -4.828650470275986 -1.493148538517745 0  4.639973657165532 -0.2833178611094909 0  -2.660279445404468 0.7699932347178977 0  -1.335045190775955 0.7744876666923373 0  -3.395669172689978 0.2584951122361346 0  2.279110606119369 -1.465899541383697 0  4.734317729212562 0.4520963557364723 0  -0.6334913028224612 1.584213953723378 0  2.121854101359879 -0.4289611127787379 0  -3.474459720833238 -0.4977581316675216 0  -1.066539898844178 0.3411379476537602 0  -3.361849707555382 -1.611428512420182 0  -4.099039818938317 0.3306400369415774 0  -2.935324777364672 0.354721898811665 0  -3.973578595052027 1.482940358734671 0  3.784450148635689 -0.0702780807301525 0  -1.191348122671212 -0.5614501189722798 0  -2.838672605956353 -0.5493179047027598 0  -1.184983441257359 0.5617520886612424 0  -2.811184099847449 0.5574240755049175 0  0.2702752249355158 -0.8003643570420809 0  -0.6945947797857237 -1.593893965175195 0  0.001175881878679056 1.504521009023778 0  0.6072931735145096 1.501814722697789 0  -3.991896293645949 -1.047264188412552 0  -3.734097395159253 -0.3261671578666079 0  -5.539652387691843 -0.8857154182585802 0  -4.395061924111849 1.563293728588296 0  0.2258327611651416 -0.08745142624872881 0  -3.774816634825771 0.8676973328379478 0  2.208484493569073 1.6256686312487 0  0.1309939514660535 -1.566169703482512 0  -5.551414360955331 0.9459842275970113 0  -4.04734138658365 -1.51163984963472 0  -4.947145019546805 -0.3299925153029702 0  4.320410447198621 0.6970857582435144 0  -4.707557346727139 -1.000565649857444 0  1.353711468973986 1.582551234446199 0  1.674156483558973 0.3266252271732694 0  -4.039105552973997 -0.4537604746027087 0  0.01051727619263377 -1.088858357362194 0  -0.2234942609176301 0.8619127912343982 0  -2.95903482691863 0.1219373374385197 0  -4.682467695920681 0.0804575682243254 0  5.535750224195656 -0.1525732643419722 0  -4.290083947414376 -0.0005258314026840717 0  1.136102562417988 0.7655312464039168 0  -2.816589394567214 0.9927597419785312 0  -2.645374456162409 -0.7645902451387543 0  4.18414576655837 1.624276131878667 0  0.7127337088822223 -0.9006358935856398 0  1.972418102153911 0.9727040774616764 0  -2.42199174813501 0.8591219219254587 0  -2.418604734200992 -0.8552987735117754 0  -5.573597213364169 -0.03612430678117123 0  2.024792870869397 0.05574071630590883 0  -1.578875191508968 0.861424470724936 0  -1.54706008231699 -0.8630049102346303 0  3.848662181064435 -1.569601980075533 0  -2.000000000003871 -0.9746445732264465 0  -1.99999999
[...]
<PointData  Scalars="f_24"> 
<DataArray  type="Float64"  Name="f_24"  format="ascii">-5.8046178612246213e-01  -5.8046178612246213e-01  0.0000000000000000e+00  0.0000000000000000e+00  -8.0009022431603749e-01  -9.7953168472628596e-02  -5.7932665780593307e-01  -5.7812431616286164e-01  -5.7509441056256660e-01  -5.7043952320980817e-01  -5.6266306903538466e-01  -5.4226450049862573e-01  -5.0232238203042245e-01  -4.0692982526103338e-01  -2.7602732935850771e-01  -1.6195200740155799e-01  -9.1327120284496702e-02  -5.3360426017923852e-02  -3.3073816737650336e-02  -2.2027095358696014e-02  -1.5262451941719084e-02  -1.1420659765165143e-02  -7.7592213990474584e-03  -6.2813272752326940e-03  -4.7652873735056830e-03  -3.2092044092931742e-03  -2.1067109824578645e-03  -1.2013128373471859e-03  -8.6515239103386425e-04  0.0000000000000000e+00  0.0000000000000000e+00  0.0000000000000000e+00  0.0000000000000000e+00  0.0000000000000000e+00  0.0000000000000000e+00  0.0000000000000000e+00  -8.3664326897192132e-04  -1.3786501163663206e-03  -2.2533811732705928e-03  -3.5902391803071098e-03  -4.5867613443016375e-03  -6.1222676893918394e-03  -8.2305037366831729e-03  -1.1230137598438342e-02  -1.5033375058322550e-02  -2.1837113104770080e-02  -3.3070140094925607e-02  -5.3434425321581214e-02  -9.0587884955585285e-02  -1.6288729830287793e-01  -2.7514837858624963e-01  -4.0703729132619321e-01  -5.0236928028903638e-01  -5.4205339067006797e-01  -5.6281987058400873e-01  -5.7055432288421570e-01  -5.7578870342008992e-01  -5.7764275175777458e-01  -5.7941549644499213e-01  -5.8046178612246213e-01  -5.8046178612246213e-01  -5.8046178612246213e-01  -5.8046178612246213e-01  -5.8046178612246213e-01  -5.8046178612246213e-01  -5.8046178612246213e-01  -7.9462214870148418e-01  -7.7829384419363001e-01  -7.2858813492333485e-01  -6.4065641369686388e-01  -5.2883703776806090e-01  -4.0067943223064245e-01  -2.8148415016565032e-01  -1.8841132903858210e-01  -1.3492146320998666e-01  -1.1077179525273489e-01  -1.0277867376501157e-01  -9.9179664231457104e-02  -9.9150446912922366e-02  -1.0277685369885081e-01  -1.1135402301272372e-01  -1.3439812108299187e-01  -1.8794879748364265e-01  -2.8167227001246825e-01  -4.0067756937448229e-01  -5.2841075311686769e-01  -6.4127655984551413e-01  -7.2796115011125007e-01  -7.7627576503366791e-01  -7.9608996001904830e-01  -4.8276777297913756e-02  -5.8770095936363953e-01  -5.8956548226251115e-01  -7.2682022004366409e-02  -1.2564908081073588e-02  -6.0318016958040577e-01  -3.8863199928754252e-03  -8.8360175203926833e-02  -5.5252793238371878e-01  -1.5280556534742329e-01  -2.8681457161146836e-02  -5.8049426294401485e-01  -5.4977536249320302e-01  -1.5959224358489499e-01  -6.3647880128925627e-01  -8.8644589136225208e-02  -1.9822516001922155e-02  -5.8346371188891522e-03  -2.1245377973981537e-03  -6.7476337861545506e-03  -5.7396856281470654e-01  -4.7602782002653310e-01  -3.1009880169502707e-01  -3.1143385219766806e-01  -4.7558760210597367e-01  -5.7982681539782643e-01  -1.3899978131846479e-02  -1.8275469997953691e-03  -4.8332470903370707e-02  -5.8210149848279846e-01  -6.2468042606129859e-01  -6.5612647096745136e-01  -1.0314025494818678e-01  -1.2522762535627080e-01  -5.7468400328196179e-01  -2.2320047272843209e-02  -1.0581201817445467e-02  -1.7283986013026673e-03  -3.7543972993704672e-03  -5.9981042225004455e-01  -4.3876096669571013e-02  -5.6492706122761682e-01  -5.6709810159237595e-01  -4.7368130294170571e-02  -7.2257478886974050e-03  -5.3697699930107545e-01  -2.2945845344420479e-01  -4.0542878775087299e-01  -2.3189260753194899e-01  -4.0522888611200941e-01  -5.3892317721174043e-01  -3.5104812164041804e-03  -8.7183841650614075e-02  -8.3502174404791116e-02  -6.8965866236033679e-02  -8.0944340674887656e-03  -6.1824942191832200e-01  -2.7130213504191134e-02  -5.7886305002459459e-01  -1.3868894463893605e-01  -5.8612512848005038e-01  -6.8524288957071644e-01  -9.7778237618698499e-02  -4.0412614886781214e-03  -9.9183121707748650e-04  -1.0608769940305550e-01  -5.8596297712369816e-01  -1.9502303095019918e-02  -6.1933564791114537e-01  -6.1207217201690534e-01  -3.1434869206205932e-02  -8.8181466391844085e-02  -5.7673853577905110e-01  -6.8529215808531874e-01  -5.8048702081759285e-01  -9.4183708613285559e-03  -5.8188960936792622e-01  -1.0130800811574846e-01  -1.4814779070207625e-02  -1.5973553408636013e-01  -5.7910381191199112e-01  -4.8341223090746804e-01  -3.0550164679799874e-01  -3.0484933815586374e-01  -4.8358137477455193e-01  -9.6595293361657245e-02  -1.5256388858143292e-02  -6.0647694758159912e-02  -3.2834648520938425e-02  -5.8055495353805675e-01  -1.1191676779341662e-03  -5.3928927940592973e-03  -5.8618920219189041e-01  -9.8679173225307532e-02  -3.6627322853927981e-02  -7.3230660346283033e-03  -2.1439058662904228e-03  -8.9704051364104635e-04  -5.0316062672567195e-03  -9.8869892910574686e-03  -1.1119079634284426e-01  -9.9175075199005747e-04  -5.0659064947793098e-01  -5.7379280709339486e-01  -1.8615280705326677e-02  -5.6664587099438130e-03  -5.0671588823010916e-01  -2.3396940474418731e-01  -3.9931506834462649e-01  -3.9931910678038973e-01  -2.2062350558390567e-01  -2.3816628210809564e-03  -2.7459900469604680e-02  -7.0893327422023034e-02  -5.8301825961922749e-01  -7.3166456404306812e-01  -5.5031142984585457e-01  -5.8060517547152324e-01  -5.7654168822925367e-01  -2.7412647315509849e-03  -6.2442394956769764e-01  -1.5546157127284199e-01  -6.3782043467200267e-01  -1.0809343608295798e-02  -2.4708452530291438e-03  -1.1851993095058448e-01  -1.5016801027234652e-02  -6.1505169329264753e-01  -1.0407062206834994e-01  -5.5104608062401883e-01  -5.9396811146761630e-01  -7.1408994787347901e-01  -5.6822445007466338e-01  -5.2990692330971388e-03  -1.1889889761099545e-01  -6.8511429865563711e-01  -1.1840899281694832e-01  -6.8878732452653191e-01  -5.2900624185479223e-02  -1.2512201109221771e-01  -6.3222778492721052e-02  -3.6255193585802287e-02  -5.7534001959804049e-01  -6.0839131784235423e-01  -5.7991979913928049e-01  -5.7351860192069926e-01  -5.6900685819830960e-02  -5.8206693871168169e-01  -1.0907652813948596e-02  -5.4890402732748936e-02  -5.7991154312517978e-01  -5.6921650497193899e-01  -5.8246212258132124e-01  -3.4127088220685161e-03  -5.7820464261717819e-01  -1.9579581035641679e-02  -2.0415109972295630e-02  -5.9272111447772990e-01  -6.4373715921309124e-02  -7.7830129928498720e-02  -7.4026930993914120e-01  -5.8517294179181867e-01  -8.7631395846570924e-04  -5.9170561523038367e-01  -2.7339288708842394e-02  -5.6821453935433552e-01  -6.2569656831857901e-01  -3.3497246880887111e-03  -3.6644443173392521e-02  -1.4652790286590386e-02  -5.6453990056384562e-01  -5.6394884260796174e-01  -5.8055346843592559e-01  -1.6561772173693996e-02  -2.0630261269486747e-01  -2.0101480105196923e-01  -4.0443991641855234e-03  -3.8421136752101653e-01  -3.8420755553172892e-01  -5.2542044417733402e-01  -5.2008471501554156e-03  -1.7912298061916374e-01  -4.1723423158953700e-02  -5.9465147883957722e-04  -6.6711918138731129e-04  -8.5562169641826211e-03  -2.1632618373212284e-01  -1.7191355117549142e-01  -1.0493166635770181e-02  -3.1672419812409577e-03  -3.1150021804016922e-03  -1.4675440967518400e-02  -5.9977263669079788e-02  -6.4712983455832940e-01  -9.5682940024948704e-03  -5.2498284629632086e-01  -6.1884767179621702e-01  -4.4080884403477211e-03  -7.2172653232988118e-03  -1.5787480268548339e-03  -7.9726765850736792e-02  -7.1386067988235408e-02  -9.4200711660028885e-02  -2.2286184656293451e-01  -7.7922538754433626e-03  -5.7970649218384818e-01  -3.5256432916796060e-02  -6.0196534350743514e-01  -5.7958801252950665e-01  -7.7653562209003824e-03  -9.7150508894447277e-02  -5.7839451856857327e-01  -5.6149612320483100e-01  -1.1232698105990302e-01  -5.7402494501559442e-01  -7.5632306823701090e-03  -1.0866631637408981e-01  -2.0311525937719194e-02  -4.5749674679464236e-01  -3.2618890083080343e-01  -3.2447946976740477e-01  -4.5743540033598140e-01  -2.0120351535350092e-02  -5.5610871681100538e-01  -5.7935277128335627e-03  -1.2151445541231835e-01  -5.6331788540175043e-04  -5.7906540124989059e-01  -6.8932021238216534e-01  -5.6312986531392839e-01  -3.6352697978538968e-02  -2.5592695069077683e-02  -2.6849728523282747e-03  -6.2270463804695853e-01  -3.6414941262085943e-02  -5.7809091288560588e-01  -5.8282686997150435e-01  -5.7832990465279432e-01  -6.4562331196361289e-01  -6.7221786534373673e-01  -5.9215025955154287e-02  -5.3650321420299681e-03  -9.3917670506056566e-02  -2.1813489084506414e-02  -5.8483053584796119e-01  -8.4209751969402780e-02  -9.8544326331847024e-02  -7.9395024107381919e-04  -1.4025732313010936e-03  -1.0330587930740465e-01  -8.3144312565390788e-02  -1.8644857219534744e-03  -6.4238538111668145e-03  -5.7841664669168669e-01  -8.3822471707680410e-03  -3.8270463423082518e-02  -6.1886611152272208e-01  -5.7477111932906222e-01  -5.7995574410168615e-01  -1.2590057336117219e-01  -5.7915610837589737e-01  -1.3700835554491860e-03  -2.9025833682073156e-03  -7.4084008248179622e-01  -7.7336674341602824e-02  -4.7563863962826858e-02  -2.6334674326273944e-02  -5.7973583762453618e-01  -4.1357587168389439e-03  -3.7501858613714339e-03  -5.6170348165478456e-01  -5.5880019651427515e-01  -5.8114100909147914e-01  -4.6510220254731421e-04  -9.5156314275721937e-02  -1.1572258287717869e-02  -1.1444343163838373e-02  -8.1534745117062685e-02  -2.7977379355999789e-02  -6.5967370160391336e-01  -2.6205371510322865e-02  -6.6019238169934158e-02  -5.8002799852196396e-01  -1.1385141148613571e-01  -5.3507680189380302e-01  -6.0399088473565166e-01  -5.8936225437789802e-01  -1.5022536323897814e-02  -4.6392158261295332e-03  -1.6695818953086144e-01  -4.1776286313931557e-04  -5.8031847185173557e-01  -5.8028341308643616e-01  -1.4188939857824330e-02  -5.9329602260896608e-01  -5.8640003613260339e-01  -5.7635767230312973e-01  -4.5185574918916699e-02  -5.7816493915454814e-01  -5.7823960414322917e-01  -5.7628381170633236e-01  -4.4087591242680402e-03  -1.2823320003873300e-02  -1.7344784239130967e-03  -1.3763054196610064e-01  -5.3480578509066623e-01  -8.7992609453877241e-02  -8.1302673437325682e-02  -5.8061961785769867e-01  -6.3531401009328976e-03  -4.7602971715989412e-01  -4.7565573599111166e-01  -2.6805740082004492e-01  -2.6634414294022174e-01  -2.4864743659975111e-02  -1.8899792815706033e-02  </DataArray> 
</PointData> 
</Piece>
</UnstructuredGrid>
</VTKFile>