<?xml version="1.0"?>
<VTKFile type="UnstructuredGrid"  version="0.1"  >
<UnstructuredGrid>
<Piece  NumberOfPoints="406" NumberOfCells="722">
<Points>
<DataArray  type="Float64"  NumberOfComponents="3"  format="ascii">-6 -2 0  -6 2 0  6 2 0  6 -2 0  -2.8 0 0  -1.2 0 0  -5.500000000001853 -2 0  -5.000000000003705 -2 0  -4.500000000005556 -2 0  -4.000000000007409 -2 0  -3.50000000000926 -2 0  -3.000000000011112 -2 0  -2.500000000012963 -2 0  -2.000000000014814 -2 0  -1.500000000016665 -2 0  -1.000000000018516 -2 0  -0.5000000000203677 -2 0  -2.204547655537681e-11 -2 0  0.4999999999796305 -2 0  0.9999999999814779 -2 0  1.499999999983327 -2 0  1.999999999985175 -2 0  2.499999999987029 -2 0  2.999999999988882 -2 0  3.499999999990735 -2 0  3.999999999992589 -2 0  4.49999999999444 -2 0  4.999999999996293 -2 0  5.499999999998147 -2 0  6 -1.500000000001387 0  6 -1.000000000002774 0  6 -0.5000000000041616 0  6 -5.505595979116151e-12 0  6 0.4999999999958384 0  6 0.9999999999972258 0  6 1.499999999998613 0  5.500000000001853 2 0  5.000000000003705 2 0  4.500000000005556 2 0  4.000000000007409 2 0  3.50000000000926 2 0  3.000000000011112 2 0  2.500000000012963 2 0  2.000000000014814 2 0  1.500000000016665 2 0  1.000000000018516 2 0  0.5000000000203677 2 0  2.204547655537681e-11 2 0  -0.4999999999796305 2 0  -0.9999999999814779 2 0  -1.499999999983327 2 0  -1.999999999985175 2 0  -2.499999999987029 2 0  -2.999999999988882 2 0  -3.499999999990735 2 0  -3.999999999992589 2 0  -4.49999999999444 2 0  -4.999999999996293 2 0  -5.499999999998147 2 0  -6 1.500000000001387 0  -6 1.000000000002774 0  -6 0.5000000000041616 0  -6 5.505595979116151e-12 0  -6 -0.4999999999958384 0  -6 -0.9999999999972258 0  -6 -1.499999999998613 0  -2.776753453941174 -0.1914525314286965 0  -2.708364820523325 -0.3717785376335722 0  -2.598808598538216 -0.5304981265911284 0  -2.454451797386757 -0.65838709271366 0  -2.283683909636528 -0.748012994147384 0  -2.096429344207466 -0.7941670992780535 0  -1.903570655798842 -0.7941670992788195 0  -1.716316090368095 -0.7480129941491368 0  -1.545548202616307 -0.6583870927157747 0  -1.401191401463757 -0.530498126593356 0  -1.291635179477527 -0.371778537635196 0  -1.223246546059047 -0.1914525314295925 0  -1.223246546058803 0.1914525314286035 0  -1.291635179476594 0.3717785376334188 0  -1.401191401461634 0.5304981265909601 0  -1.545548202612898 0.6583870927134221 0  -1.716316090363093 0.7480129941472402 0  -1.903570655792394 0.7941670992780367 0  -2.096429344201276 0.7941670992788055 0  -2.283683909631911 0.7480129941491347 0  -2.454451797383697 0.6583870927157729 0  -2.598808598536385 0.530498126593196 0  -2.70836482052258 0.3717785376349917 0  -2.776753453940975 0.1914525314295042 0  0.4588466633941945 0.2704149791022056 0  -4.424312812173863 0.2760319703992994 0  -3.803977598762586 -0.6841584599595646 0  -0.1330968762779425 -0.6798763971615133 0  2.451109587541276 3.169800318630399e-13 0  -3.563610936250569 0.5929994091167295 0  4.204753319582647 0.2820669554523581 0  -0.4390897559348154 0.6178095532273566 0  -3.041446812595122 1.175550440315544 0  -0.9622132806516797 1.132103015222783 0  1.069493318942931 -0.773608156980569 0  -4.924330687080279 -0.7127064269610045 0  -3.024693497948964 -1.195179289656404 0  -0.9648749555625579 -1.256854520022574 0  -3.443624282349383 -0.2044158249759613 0  -0.5611500783757608 -0.1747080110423833 0  1.60270880116926 0.7487034276124258 0  3.488352576142236 -0.8228939860777884 0  4.816375011670135 -0.8163750116689444 0  3.243628045085357 0.8578172796997985 0  -4.228632884234073 1.228069101636678 0  -2.365220384435482 -1.356128547810356 0  -1.637465979486354 1.3571687267915 0  -1.642380978561139 -1.359365080147485 0  -2.362988915989869 1.356737096243695 0  -5.134120367293631 0.8356299802910161 0  2.077496878467794 -0.9514080034522553 0  4.960859291178299 0.9608592911785537 0  0.3293120056474302 1.148965409695154 0  -5.157560560414062 0.09447106214747865 0  -3.14779387667392 -0.6330563038825547 0  -3.148134455585257 0.4354299640428653 0  -0.8464439673630421 0.4159277415926296 0  -0.9918125625721008 -0.7191748422889824 0  -4.355349213295776 -1.234510499778242 0  1.582074659164868 -0.06850205959954866 0  2.400584045214166 1.204278622181321 0  5.102831660739063 0.03453404176596848 0  4.083259768981113 1.154272958349666 0  -3.992394834362243 -0.1621022234411988 0  0.4290302718942113 -1.225465289645401 0  -3.681487986394671 -1.310544246656267 0  -3.640289698916164 1.187023654838123 0  0.468851680921228 -0.447055967952278 0  3.315209904217932 0.05667935655546536 0  -2.541160649745046 -1.046980928586996 0  -1.45196684542695 1.044189935346116 0  -2.000844595891861 -1.207983108473125 0  -1.453092202970521 -1.061139264918894 0  -2.000050543938391 1.207806685704176 0  -2.548033154566413 1.04418993534851 0  4.13054585796652 -1.232871249381608 0  -0.3301617095463629 1.221692405319566 0  -0.2880491989587189 -1.359626628407983 0  -0.0758941643813178 0.132275811829787 0  2.826389221580753 -1.233168480096227 0  -2.922070412327736 0.7575752117792038 0  1.003070890178416 1.271347915034201 0  -5.319521816151902 -1.310543894393663 0  -1.070407062963812 0.7877698545098388 0  -4.562499863038985 -0.2302396981426722 0  -3.164226661545047 0.07179577787350272 0  -0.9091377812900333 0.132454654016971 0  4.116029045943655 -0.4851826871817362 0  5.316659189209927 -1.316659189208741 0  -0.9498828454673396 -0.4149758979014553 0  -4.037769805263969 0.6896174350675625 0  1.431664772855882 -1.327784137638992 0  -3.646693623568034 0.1600006358878044 0  -2.878371345483476 -0.7910345833001061 0  1.062603041385242 0.2894765870627741 0  -0.547955103783681 0.1635272504420374 0  -4.804809838419659 1.41016301576038 0  -3.042895319571192 -0.3694931303482478 0  -4.59252578392403 0.792267765362792 0  2.823271260730033 -0.5472430318427347 0  -4.28575390662405 -0.7521491832384866 0  -0.5524005545121191 -0.9037367558558163 0  1.815219025072439 1.388812135783969 0  -1.288398729718543 -0.8178399475601057 0  -5.424388493366639 1.35375165044146 0  -2.256991952837567 -1.049538527273222 0  -1.739586738723494 -1.052327527873255 0  -1.738827359988536 1.050180627239116 0  -2.257795730428802 1.049701225145305 0  -0.62222340523776 -0.5483611729237363 0  2.065188519029698 0.5424877383589943 0  0.1055865106318892 0.7347782870471022 0  1.013082573993895 -0.2061877611231605 0  -5.428323520618333 -0.4386412085227075 0  5.374041502384443 -0.5304401760993408 0  3.435185060219232 -1.377658617395091 0  -3.302377238490527 0.8841390072780534 0  -0.9902123298072768 -0.124175295282554 0  0.7186958547669859 0.8724503317343631 0  2.941237214953417 1.390391532351976 0  4.708037787864423 -1.340276032051348 0  5.395029680982659 1.395029680983341 0  3.591022587550188 1.348260650408605 0  2.759385971589342 0.4857447325740718 0  -0.6832705231418494 0.8879387563573758 0  5.437781298507145 0.5981501503262471 0  -2.698603003287285 1.617130043745112 0  -3.463358189947519 -1.013588318179017 0  1.710866040171871 -0.6978716337870808 0  3.642182982762737 0.4555704362064124 0  -2.699802128031161 -1.618310703146212 0  -1.3020054856637 1.619819977935582 0  -2.000000000004996 -1.566396763829867 0  -1.999999999994794 1.566396763830688 0  -1.247812462071684 -1.595232739507426 0  4.59429106759859 1.420052135572917 0  0.9448382581152466 -1.440259145469251 0  -0.116376100998861 -0.2606209011258676 0  -4.774521510507792 0.4245390872783272 0  -2.983910172370106 -0.1208000607277856 0  -3.353983741142061 1.576062863985777 0  -5.473352579109997 0.4917619255280954 0  -4.828650470275986 -1.493148538517745 0  4.639973657165532 -0.2833178611094909 0  -2.660279445404468 0.7699932347178977 0  -1.335045190775955 0.7744876666923373 0  -3.395669172689978 0.2584951122361346 0  2.279110606119369 -1.465899541383697 0  4.734317729212562 0.4520963557364723 0  -0.6334913028224612 1.584213953723378 0  2.121854101359879 -0.4289611127787379 0  -3.474459720833238 -0.4977581316675216 0  -1.066539898844178 0.3411379476537602 0  -3.361849707555382 -1.611428512420182 0  -4.099039818938317 0.3306400369415774 0  -2.935324777364672 0.354721898811665 0  -3.973578595052027 1.482940358734671 0  3.784450148635689 -0.0702780807301525 0  -1.191348122671212 -0.5614501189722798 0  -2.838672605956353 -0.5493179047027598 0  -1.184983441257359 0.5617520886612424 0  -2.811184099847449 0.5574240755049175 0  0.2702752249355158 -0.8003643570420809 0  -0.6945947797857237 -1.593893965175195 0  0.001175881878679056 1.504521009023778 0  0.6072931735145096 1.501814722697789 0  -3.991896293645949 -1.047264188412552 0  -3.734097395159253 -0.3261671578666079 0  -5.539652387691843 -0.8857154182585802 0  -4.395061924111849 1.563293728588296 0  0.2258327611651416 -0.08745142624872881 0  -3.774816634825771 0.8676973328379478 0  2.208484493569073 1.6256686312487 0  0.1309939514660535 -1.566169703482512 0  -5.551414360955331 0.9459842275970113 0  -4.04734138658365 -1.51163984963472 0  -4.947145019546805 -0.3299925153029702 0  4.320410447198621 0.6970857582435144 0  -4.707557346727139 -1.000565649857444 0  1.353711468973986 1.582551234446199 0  1.674156483558973 0.3266252271732694 0  -4.039105552973997 -0.4537604746027087 0  0.01051727619263377 -1.088858357362194 0  -0.2234942609176301 0.8619127912343982 0  -2.95903482691863 0.1219373374385197 0  -4.682467695920681 0.0804575682243254 0  5.535750224195656 -0.1525732643419722 0  -4.290083947414376 -0.0005258314026840717 0  1.136102562417988 0.7655312464039168 0  -2.816589394567214 0.9927597419785312 0  -2.645374456162409 -0.7645902451387543 0  4.18414576655837 1.624276131878667 0  0.7127337088822223 -0.9006358935856398 0  1.972418102153911 0.9727040774616764 0  -2.42199174813501 0.8591219219254587 0  -2.418604734200992 -0.8552987735117754 0  -5.573597213364169 -0.03612430678117123 0  2.024792870869397 0.05574071630590883 0  -1.578875191508968 0.861424470724936 0  -1.54706008231699 -0.8630049102346303 0  3.848662181064435 -1.569601980075533 0  -2.000000000003871 -0.9746445732264465 0  -1.99999999
[...]
<PointData  Scalars="f_24"> 
<DataArray  type="Float64"  Name="f_24"  format="ascii">1.1364378027792968e-01  1.1364378027792968e-01  0.0000000000000000e+00  0.0000000000000000e+00  -2.1751012452813712e-01  2.2954596678033384e-01  9.0018015142674795e-02  6.6855790611039120e-02  4.4337719607240832e-02  2.2929197403650861e-02  3.0291374497372799e-03  -9.1320099762448904e-03  -7.2138404490393552e-03  4.3164081590783020e-02  1.2798561070007017e-01  2.0083773558381854e-01  2.3720463663284183e-01  2.4597356752788493e-01  2.3894344702694570e-01  2.2410777078194102e-01  2.0566710910092992e-01  1.8488157174974526e-01  1.6325899110639469e-01  1.4071498841608726e-01  1.1750675859059692e-01  9.4473659341390223e-02  7.1044667153157423e-02  4.7453504550856063e-02  2.3777677931506563e-02  0.0000000000000000e+00  0.0000000000000000e+00  0.0000000000000000e+00  0.0000000000000000e+00  0.0000000000000000e+00  0.0000000000000000e+00  0.0000000000000000e+00  2.3777322838713585e-02  4.7407433298158427e-02  7.0880347428019186e-02  9.4351721978256781e-02  1.1763025808306378e-01  1.4066073289894201e-01  1.6315600028771748e-01  1.8498115352827010e-01  2.0580969687668993e-01  2.2426291583053456e-01  2.3890202617863218e-01  2.4584150172106281e-01  2.3781739134133370e-01  2.0013403592176296e-01  1.2867848906859913e-01  4.3082981519200557e-02  -7.2485652772074586e-03  -9.0025540696714711e-03  2.8727555161060054e-03  2.2741226638611060e-02  4.4072170841861213e-02  6.7030384270561849e-02  9.0021225321604684e-02  1.1364378027792968e-01  1.1364378027792968e-01  1.1364378027792968e-01  1.1364378027792968e-01  1.1364378027792968e-01  1.1364378027792968e-01  1.1364378027792968e-01  -2.1659543962474120e-01  -2.1274526201708011e-01  -1.8195971247832154e-01  -1.1762723216157327e-01  -3.2008997872383198e-02  6.6750501448214275e-02  1.5485498951603455e-01  2.1680130565029240e-01  2.4282343001973741e-01  2.4453360885369560e-01  2.3700261395934105e-01  2.3130534048445830e-01  2.3128655427314593e-01  2.3693076831541995e-01  2.4432171286307480e-01  2.4343520313188460e-01  2.1731584243657628e-01  1.5469178246086379e-01  6.6760878962989281e-02  -3.1631980739567050e-02  -1.1819250748769365e-01  -1.8151612940598291e-01  -2.1092773894387212e-01  -2.1809014411934016e-01  2.2370085166722864e-01  3.1248162472836849e-02  -5.5864019606880616e-04  2.2879011978622538e-01  1.6141294359094699e-01  -2.3577351663244921e-02  8.3953364064073610e-02  2.2648551268995684e-01  -1.0575149571418814e-02  1.9960500141587964e-01  2.1368863897452769e-01  6.1401230472502767e-02  -9.3098289186673011e-03  1.9540021798322446e-01  -5.6588458052298132e-02  2.2736196336621692e-01  1.9603007845494785e-01  1.1710929174951075e-01  5.5742289651345721e-02  1.2821495607502123e-01  3.2506887851746297e-02  1.0863544732281266e-02  1.0446103354322919e-01  1.0358333350379005e-01  1.1095505763782647e-02  7.2122212236611610e-02  1.7850268549227652e-01  4.8978492776139131e-02  2.3216734654120888e-01  7.1421292542723891e-02  -6.2606233836150008e-02  -8.7941541600885603e-02  2.2593200403915270e-01  2.1802219079612273e-01  3.8137176554136315e-02  1.9448883623517388e-01  1.6585030081973395e-01  4.2146207174175880e-02  9.0005313965235784e-02  3.0861325352745522e-04  2.3159538463447948e-01  1.2530471092509789e-02  8.9835665097758467e-03  2.2442019973705937e-01  1.2425778093964496e-01  -2.7253676245840654e-02  1.6084941299118821e-01  4.7023133828136381e-02  1.5889114921316416e-01  4.7147867842082074e-02  -2.8441768668570667e-02  8.7881661453336216e-02  2.2865121659746110e-01  2.3079818314832695e-01  2.2751528790811554e-01  1.4732116768456263e-01  -7.0485031985567825e-02  2.1890579944993274e-01  8.1832328287428799e-02  2.1166553860122020e-01  3.9252091427196559e-02  -1.0992015637068707e-01  2.2825001231973810e-01  8.8136177262097604e-02  3.2425334137308658e-02  2.2642313451550330e-01  1.3836329348726577e-02  2.0496099122079803e-01  -3.2580315035690831e-02  -6.7997344484021977e-02  2.1102844317997918e-01  2.2737175513874575e-01  5.8405408306387831e-02  -1.1709088235316437e-01  4.5283034092309278e-02  1.4623169545874187e-01  2.9247340479900626e-02  2.2270543783053487e-01  1.9054090006975757e-01  2.0658490762643916e-01  8.6736297996488770e-02  -4.4017550514603883e-04  1.1593280003886139e-01  1.1645141523340140e-01  -5.2860906385025297e-04  2.2535483611376328e-01  1.7773901220319918e-01  2.2968455206817151e-01  2.1203453308156095e-01  8.5858764912961891e-02  2.9484493080117993e-02  1.2008797137455486e-01  -2.3306882953890638e-02  2.2891400303805684e-01  2.2345673971688987e-01  1.4244153520900321e-01  6.0969295877924268e-02  2.8653663545263563e-02  1.1283649827083707e-01  1.4891077428981381e-01  2.1937824895394811e-01  2.6480280790536527e-02  4.8363208364878806e-03  -5.0965749388979797e-03  1.9188334776470628e-01  1.0975598639640391e-01  4.7897072560009919e-03  1.5217285809420789e-01  5.1389090593016842e-02  5.1394420523637414e-02  1.6050966018233123e-01  6.6269076831618437e-02  2.2161309650559227e-01  2.2758543930153066e-01  5.2092585220973292e-02  -1.5620304601899870e-01  6.3756472481160606e-03  8.7983293804604845e-02  5.9647947612742162e-02  6.3779422016808862e-02  -9.2016849480171470e-02  2.1249425574414732e-01  -6.0086908980367879e-02  1.7154479169232661e-01  5.9427516272300238e-02  2.1803934066618116e-01  1.7517360559329517e-01  -3.7662468096600746e-02  2.2957162907147044e-01  6.0448919577321021e-03  1.0300764037293551e-02  -1.4650530192239189e-01  2.4082666645683141e-02  1.0315148482339122e-01  2.2835917717062579e-01  -1.3006742613812594e-01  2.2864021226704281e-01  -1.3505822309683968e-01  2.2961692405756115e-01  2.1533173148854168e-01  2.3571387328553550e-01  2.3024409736490356e-01  2.0007829079020670e-02  -1.9329406901993536e-02  9.1734657146961274e-02  4.0700586495624955e-02  2.2591387699346777e-01  4.0012301630769111e-03  1.7494463413864250e-01  2.3704929576661601e-01  9.2304118554095704e-02  2.6951504830345016e-02  6.0923462703114897e-02  7.8739363992050546e-02  5.2673327333947674e-02  2.0885349271061449e-01  1.9186860760362473e-01  8.3950109682907285e-03  2.3252852115157402e-01  2.2921169469878791e-01  -1.6432593724864450e-01  4.5860196809257237e-02  2.1824057682307642e-02  2.1435466806152347e-02  2.1172894679179566e-01  -3.5922340391669312e-02  -9.4088474155311505e-02  8.5429867818147265e-02  2.2384810102812244e-01  1.8293164970002040e-01  -5.6744917449533715e-02  -5.6368394580686487e-02  9.2934820140439411e-02  1.7841845162064190e-01  1.8937209016427453e-01  1.9125167235804780e-01  1.0117085709906740e-01  6.9113614410390087e-02  6.9129763799806079e-02  -5.7546422469368615e-03  1.0986007031520430e-01  1.8874994938588024e-01  2.1953134329491683e-01  1.8634293035407916e-02  1.9655241168257998e-02  1.4677941459535904e-01  1.6283611583825902e-01  1.9160731193492681e-01  1.5979273146012132e-01  7.6374056749269378e-02  8.2308896342104185e-02  1.9350514638239796e-01  2.2791922078603094e-01  -7.4201163380118992e-02  1.4331444680487809e-01  -5.3615537498999631e-03  -5.8311946782830942e-02  9.7835907357201615e-02  1.2650280836189959e-01  4.7303505057449319e-02  2.2759531802392466e-01  2.2804703110685487e-01  2.2774083850588317e-01  1.5897111764395758e-01  1.5151850129858621e-01  -2.7193711043754350e-02  2.3217258175013156e-01  -1.1783255381380147e-02  9.4571088813377738e-02  1.3123837052548268e-01  2.2709764017945633e-01  5.8019875711210811e-02  -1.7628935852093625e-03  2.1884547130673596e-01  4.3001400067958835e-02  1.3639751402617015e-01  2.2250995789198194e-01  2.1157361808568817e-01  2.1181411208714362e-02  9.5116721822104178e-02  9.6158052076035977e-02  2.1214817049996792e-02  2.0352428010790696e-01  7.7265692031207311e-04  1.2913627758828716e-01  2.1487848755556246e-01  1.8744639766585303e-02  7.0907849028594178e-02  -1.1730901492436394e-01  1.4820434526770012e-02  2.2712200472646979e-01  2.0438852674661617e-01  6.7603631600465647e-02  -5.1316513480295207e-02  2.1816029098800879e-01  7.4475351438734821e-02  4.4520755166613232e-02  7.7150944713133607e-02  -6.5897576251740655e-02  -9.6803126526164060e-02  2.2679611801478447e-01  1.0644980607959577e-01  2.2604301631307455e-01  2.0387836854614574e-01  3.0418732385984335e-02  2.2704658872421846e-01  2.2968285872432828e-01  1.9871281986575482e-02  4.4734914948239980e-02  2.3118674200783096e-01  2.3347786877624138e-01  4.5753066467952817e-02  1.3484798879863960e-01  7.1448534293750504e-02  1.5607230387272825e-01  2.1932335815502024e-01  -3.1222182354865614e-02  1.9346038035201088e-02  9.9229022878895692e-02  2.1363514171627726e-01  3.1375398243345648e-02  3.9040076347521969e-02  6.6188888267947318e-02  -1.7175885175401481e-01  2.3626786438166292e-01  2.2621778035973644e-01  2.2275772794584972e-01  9.6879044093770322e-02  1.0352634208834297e-01  8.0734384648393498e-02  1.3796826907097864e-02  -3.0417448715380765e-02  6.9431442290841888e-02  1.6062591324573029e-02  2.2735095609465261e-01  1.5818947334643871e-01  1.6304555288919279e-01  2.2736339998365096e-01  2.0499649121556190e-01  -9.9827171616868257e-02  2.1436746237669724e-01  2.3273039579342031e-01  1.0123794045966983e-01  2.2415766760263514e-01  1.9625847607189434e-03  -6.9130103361444983e-03  2.3515710417488886e-02  1.8881400194031470e-01  1.0506251346839036e-01  1.9145502115620155e-01  1.3800097001936927e-02  1.0120718385756472e-01  7.5086958818441435e-02  1.9444534505730385e-01  -2.1784143550367806e-02  -1.1373723069436556e-02  5.6542509142083475e-02  2.3739670141373331e-01  -2.8704247437066004e-02  5.5154867495024315e-03  4.5367962634603520e-02  9.5233166238065783e-02  1.6484828113440814e-01  4.2972607956446369e-02  2.2899609029405485e-01  2.0842027053244189e-03  2.2629497416345601e-01  2.2899274450657073e-01  5.8837011087918008e-02  1.2845470553692326e-01  6.5087733631726905e-03  6.8067984675425856e-03  1.5438320203858613e-01  1.5544502449082717e-01  2.0266503139260639e-01  1.8758188933546210e-01  </DataArray> 
</PointData> 
</Piece>
</UnstructuredGrid>
</VTKFile>