<?xml version="1.0"?>
<VTKFile type="UnstructuredGrid"  version="0.1"  >
<UnstructuredGrid>
<Piece  NumberOfPoints="622" NumberOfCells="1116">
<Points>
<DataArray  type="Float64"  NumberOfComponents="3"  format="ascii">-6 -2 0  -6 2 0  6 2 0  6 -2 0  -2.8 0 0  -1.2 0 0  -5.500000000001853 -2 0  -5.000000000003705 -2 0  -4.500000000005556 -2 0  -4.000000000007409 -2 0  -3.50000000000926 -2 0  -3.000000000011112 -2 0  -2.500000000012963 -2 0  -2.000000000014814 -2 0  -1.500000000016665 -2 0  -1.000000000018516 -2 0  -0.5000000000203677 -2 0  -2.204547655537681e-11 -2 0  0.4999999999796305 -2 0  0.9999999999814779 -2 0  1.499999999983327 -2 0  1.999999999985175 -2 0  2.499999999987029 -2 0  2.999999999988882 -2 0  3.499999999990735 -2 0  3.999999999992589 -2 0  4.49999999999444 -2 0  4.999999999996293 -2 0  5.499999999998147 -2 0  6 -1.500000000001387 0  6 -1.000000000002774 0  6 -0.5000000000041616 0  6 -5.505595979116151e-12 0  6 0.4999999999958384 0  6 0.9999999999972258 0  6 1.499999999998613 0  5.500000000001853 2 0  5.000000000003705 2 0  4.500000000005556 2 0  4.000000000007409 2 0  3.50000000000926 2 0  3.000000000011112 2 0  2.500000000012963 2 0  2.000000000014814 2 0  1.500000000016665 2 0  1.000000000018516 2 0  0.5000000000203677 2 0  2.204547655537681e-11 2 0  -0.4999999999796305 2 0  -0.9999999999814779 2 0  -1.499999999983327 2 0  -1.999999999985175 2 0  -2.499999999987029 2 0  -2.999999999988882 2 0  -3.499999999990735 2 0  -3.999999999992589 2 0  -4.49999999999444 2 0  -4.999999999996293 2 0  -5.499999999998147 2 0  -6 1.500000000001387 0  -6 1.000000000002774 0  -6 0.5000000000041616 0  -6 5.505595979116151e-12 0  -6 -0.4999999999958384 0  -6 -0.9999999999972258 0  -6 -1.499999999998613 0  -2.796147781337886 -0.07841371226233997 0  -2.784628224322852 -0.1560722576115546 0  -2.765552268586196 -0.2322277418021561 0  -2.739103626009626 -0.30614674589063 0  -2.705537011479457 -0.3771173894593519 0  -2.665175689843037 -0.4444561864141836 0  -2.618408362691456 -0.5075146273293722 0  -2.565685424950688 -0.5656854249477874 0  -2.507514627332613 -0.6184083626887972 0  -2.444456186417533 -0.6651756898407991 0  -2.377117389462776 -0.7055370114776264 0  -2.306146745894456 -0.7391036260080417 0  -2.232227741806235 -0.7655522685849585 0  -2.15607225761588 -0.784628224321992 0  -2.078413712266957 -0.7961477813374315 0  -2.000000000003407 -0.7999999999999998 0  -1.921586287739523 -0.7961477813380696 0  -1.843927742389945 -0.7846282243231506 0  -1.767772258198879 -0.7655522685865098 0  -1.693853254109962 -0.7391036260098718 0  -1.622882610540873 -0.7055370114795768 0  -1.555543813585629 -0.6651756898429115 0  -1.49248537267008 -0.6184083626910072 0  -1.434314575051535 -0.5656854249500112 0  -1.381591637310384 -0.5075146273316149 0  -1.334824310158267 -0.4444561864161359 0  -1.294462988521423 -0.3771173894609975 0  -1.260896373990956 -0.3061467458920351 0  -1.234447731414138 -0.2322277418032578 0  -1.215371775677287 -0.156072257612254 0  -1.203852218662147 -0.07841371226267954 0  -1.203852218662115 0.07841371226235888 0  -1.215371775677132 0.156072257611478 0  -1.234447731413795 0.232227741802127 0  -1.260896373990353 0.3061467458905811 0  -1.294462988520456 0.3771173894591898 0  -1.334824310156812 0.444456186413959 0  -1.381591637308413 0.5075146273292139 0  -1.434314575049147 0.5656854249476236 0  -1.492485372667197 0.6184083626886415 0  -1.555543813582104 0.6651756898405565 0  -1.62288261053673 0.7055370114773629 0  -1.693853254105125 0.7391036260078683 0  -1.767772258193396 0.7655522685848468 0  -1.84392774238373 0.7846282243219146 0  -1.921586287732977 0.7961477813374253 0  -1.999999999996558 0.8 0  -2.078413712260516 0.7961477813380661 0  -2.156072257610207 0.7846282243231205 0  -2.232227741801178 0.7655522685864928 0  -2.306146745890059 0.7391036260098632 0  -2.377117389459098 0.7055370114795929 0  -2.444456186414405 0.6651756898428894 0  -2.50751462732998 0.6184083626909587 0  -2.565685424948549 0.5656854249499272 0  -2.61840836268981 0.5075146273313792 0  -2.665175689841831 0.4444561864159886 0  -2.705537011478692 0.3771173894607835 0  -2.739103626009108 0.3061467458918818 0  -2.76555226858589 0.2322277418031643 0  -2.784628224322724 0.1560722576122001 0  -2.796147781337853 0.07841371226267957 0  0.6720367661319522 0.1312687487860887 0  -4.389489086394485 0.3544472233398538 0  -3.816221554046232 -0.6097988664512611 0  -3.552726516474419 0.9342959806851625 0  -0.2536610443052337 0.8162373554653355 0  -0.1843238977799138 -0.6649951410982842 0  -3.613359951620445 0.1086570650978273 0  -3.146954163409593 -1.074378179335012 0  -0.4255266515582625 0.07734891565364931 0  -0.9413731612925856 1.168014724254929 0  -2.947764053183577 1.200029094390044 0  -0.8319852757411681 -1.058626838707328 0  2.675418990747819 -1.137325591670363e-12 0  -2.602010642259726 -1.287560129290477 0  -2.334401622060699 1.335006108940604 0  -1.524718496628401 1.32890816230333 0  -1.369813829148039 -1.26145150481762 0  -3.294065651892671 -0.4630240940010318 0  -2.072749204569071 -1.388981302138359 0  -0.7546165313921411 0.5601792161340381 0  -3.224879719581335 0.4382689715877901 0  -0.7073137361349826 -0.4625305410752652 0  4.326242945813966 0.3262429458150917 0  -3.187880061217201 0.07437712177460168 0  -2.94792024259867 0.7030255657465158 0  -2.678809277907896 0.9152683582887104 0  -4.911626141576894 -0.5700186648601188 0  -2.980647654587299 -0.5685006168686053 0  -2.769438919323564 -0.8202775213660614 0  -1.936950121013948 1.220669938589229 0  -0.8971643766260747 0.2762459428874499 0  -0.8760878018253068 -0.06836412137772707 0  -1.086827485441145 0.6772548942594016 0  -1.31355927028917 0.8808768148414213 0  -1.034266382739347 -0.5912381576649568 0  -1.241594139118264 -0.836771920085274 0  1.667161185638911 -0.6367996576268693 0  1.778189842800902 0.7191719841256095 0  -3.065106827511819 -0.266795371500425 0  3.714311277362231 -0.7275465302492842 0  -1.728329421201519 -1.09954751473283 0  4.870629493137888 -0.7325040699186681 0  -3.024707894719303 0.2567561910603656 0  -4.375540207252226 1.228935704312058 0  -2.272077148001781 -1.086192861256262 0  3.351408248797803 0.9175227128129597 0  -5.141847419540732 0.8091901960109126 0  0.5769368286199241 1.111816231125821 0  0.7411482978492124 -1.079569101289617 0  -1.074013749991219 0.430231207546053 0  -1.04664573441257 -0.3358382377487088 0  -2.439195336951085 0.9224778883059374 0  -2.902607676587358 0.4360473765597399 0  -1.629450174302152 1.035617385691805 0  -2.146859933125513 1.032375363966426 0  2.587625196444542 -0.9999926061845814 0  -2.529286802957126 -0.8830616815739111 0  -1.493798157676768 -0.8794705728517196 0  -1.932158132383022 -1.026681566564148 0  -4.09956359341904 -0.1372485582942864 0  5.055802064425553 1.050933510837308 0  -4.413659685984891 -1.207626391697488 0  -4.961411026474009 0.1201902955685026 0  -3.771151641156835 -1.303594976371997 0  -3.001321503506133 -0.04919177107285733 0  -3.881733605683001 0.5124517634812003 0  -0.1971627317996802 -1.336445372382849 0  -2.742825060181767 0.6732573903735507 0  2.520439429199979 1.129372838786189 0  -1.026326428668429 0.1384273198437734 0  -2.779290004861729 -0.5844691722665721 0  -2.895095740820851 -0.4261289730972082 0  -1.275682076193407 0.6630703172777138 0  0.1045291701958869 0.3433373435296472 0  5.175560481258801 0.0608563229178163 0  -1.211574424201636 -0.5847362589868093 0  -1.85847006217035 1.007917631940711 0  4.152535916385823 1.131901130662082 0  -1.04878257200685 -0.1253529988863012 0  1.432836501626023 0.05634449574318775 0  3.560672936003603 0.01188897172456759 0  -3.351823698389408 -0.1821329582635926 0  -5.145153363200735 -1.259166339382508 0  0.03473693330309885 -0.1724947236036572 0  -4.377830921337186 -0.6172564090242229 0  -0.3943750728122595 1.410897156959435 0  -1.661073679471639 -0.9342065000197183 0  -1.49086536677686 0.8331714487926741 0  -2.584486130952032 0.7871482690034864 0  4.270535884593893 -1.259607924744415 0  -1.757417028085795 -1.505182186951191 0  -3.430586920998477 1.425579221231371 0  -2.917598827418652 -0.2298465409534677 0  -2.328978331116049 -0.9300959620317677 0  -2.148543000691344 -0.9751580214451921 0  1.002654111360038 -0.4521702885594788 0  -4.628651824080903 -0.1127998710567241 0  -2.948904386702482 0.1555943115410545 0  0.4165242577134774 -0.5629432649478633 0  -3.698137692471105 -0.3173027948676715 0  -3.491400684461791 -0.7926319721650269 0  -0.3844454817728994 0.4680628696134375 0  -3.207830713508533 0.9778749990559993 0  3.229909751065535 -1.326302454776001 0  5.330007715336748 -1.312905173261894 0  -2.649214054100534 -0.713314536278899 0  1.342022964818772 -1.328315248672686 0  -2.556460939068198 1.202372762828344 0  -0.3497819755044588 -0.3080427614060888 0  -4.928440909495523 1.387622767511967 0  1.309170811945155 1.337467055109531 0  -1.352031940181449 -0.7151198948590243 0  -0.6132855723904642 0.9519045895123004 0  4.266838388406324 -0.3707357390867402 0  -3.834389788310238 1.371594798941152 0  -1.187890214580146 0.4851427123079557 0  -1.109118888029193 0.3185947354467283 0  0.1837819401738013 1.234799661476361 0  1.108165254659559 0.6237223548284967 0  -0.5266600156584522 -0.8113991260886402 0  -4.643822083543982 0.7834094684931707 0  -1.146235204666366 -0.4027330721405781 0  2.049029845992713 -0.2664662499985428 0  2.002665761665898 -1.328912351029848 0  -1.678783505586872 0.8978832065736417 0  -2.049499525232052 0.9483890761590005 0  -2.229972236535132 0.9181006323151361 0  -3.033763529945482 -1.54240494280775 0  -3.562344364746847 0.5622550957224539 0  -5.524396842903405 -0.2709714867672603 0  -0.9710982764034376 -1.549038578476423 0  3.058819320130555 -0.5375106252795963 0  -4.170365230099585 0.7342553699229977 0  -1.045878746461381 -8.187420622554697e-05 0  -1.864822945411764 -0.9219031104673102 0  -0.6251005091687033 -0.2120650512195049 0  2.317562622406059 0.4886417799113238 0  -0.6674371191466613 0.1483993095055008 0  -2.705757882979874 1.609712312948224 0  
[...]
<PointData  Scalars="f_24"> 
<DataArray  type="Float64"  Name="f_24"  format="ascii">9.9999997482752390e-01  9.9999997482752390e-01  9.9999997482752390e-01  9.9999997482752390e-01  4.4035355493396011e-01  8.6055706056057690e-01  9.8368168976194115e-01  9.6809400029763337e-01  9.5307535170218882e-01  9.4080688899100573e-01  9.3180343108528008e-01  9.2673245054336895e-01  9.1820368924415308e-01  8.8634246704525932e-01  8.2866127239958254e-01  8.6320772348442032e-01  9.8142550005282780e-01  1.0861567593820955e+00  1.1385104484288173e+00  1.1553692699035578e+00  1.1521875945840798e+00  1.1389588926036920e+00  1.1223020788904658e+00  1.1041212010251413e+00  1.0874877204095437e+00  1.0688562787143854e+00  1.0525517633995645e+00  1.0339294811825306e+00  1.0178422035592289e+00  9.9999997482752390e-01  9.9999997482752390e-01  9.9999997482752390e-01  9.9999997482752390e-01  9.9999997482752390e-01  9.9999997482752390e-01  9.9999997482752390e-01  1.0176567495873381e+00  1.0341348164480884e+00  1.0525461871630517e+00  1.0685015641726259e+00  1.0871332357201762e+00  1.1050841431087446e+00  1.1212732791846021e+00  1.1388010764813918e+00  1.1518397465823575e+00  1.1547360778298397e+00  1.1381287156503872e+00  1.0872628763310606e+00  9.8648877911305222e-01  8.5573295225024204e-01  8.5198508624215485e-01  8.8769963378200267e-01  9.2017183174398176e-01  9.2736800931339680e-01  9.3206862413560942e-01  9.4035710986311105e-01  9.5340934106725683e-01  9.6780690127412228e-01  9.8339453099546115e-01  9.9999997482752390e-01  9.9999997482752390e-01  9.9999997482752390e-01  9.9999997482752390e-01  9.9999997482752390e-01  9.9999997482752390e-01  9.9999997482752390e-01  4.4356007150928756e-01  4.5392073401450328e-01  4.5387692085879305e-01  4.7238921894775798e-01  4.7651644748361777e-01  5.1914599291863706e-01  5.1842509849532759e-01  5.8028905403137054e-01  5.7961258725322096e-01  6.5092701744143433e-01  6.7256681741210100e-01  7.4749394248110945e-01  7.8597819897362409e-01  8.3990635994723339e-01  8.6993675818764948e-01  8.8782032895913721e-01  8.8513632822428190e-01  8.5847430011233650e-01  8.2032511016760790e-01  7.8063896224990292e-01  7.5193227270329299e-01  7.3567965097122567e-01  7.3584220891995100e-01  7.4518159075817714e-01  7.6295123322675273e-01  7.8300667676360403e-01  8.0393100880908697e-01  8.2303735716060455e-01  8.3860418558818084e-01  8.5046036722931184e-01  8.5818377796703860e-01  8.5830880275078858e-01  8.5111243897853128e-01  8.3971663022499143e-01  8.2396358709125050e-01  8.0513428306356660e-01  7.8462042315498448e-01  7.6416514132585545e-01  7.4701589321557815e-01  7.3722493387276278e-01  7.3837098243096810e-01  7.5559151016702208e-01  7.8705890818240720e-01  8.2758921027621501e-01  8.6829967084482151e-01  8.9350815726485133e-01  8.9829031571556373e-01  8.8285490091250474e-01  8.4192120925039071e-01  8.0983752037439860e-01  7.5347018473237271e-01  6.8367624180842801e-01  6.1525181291013231e-01  6.1830655582441219e-01  5.3534797253404087e-01  5.3689730773782618e-01  5.0705114796875950e-01  4.8538962707892891e-01  4.6466434654429001e-01  4.6908601016516760e-01  4.4850431809571167e-01  4.4558320975275267e-01  1.1119570260524996e+00  9.3724765384428965e-01  9.1277777123479920e-01  9.1497124164923771e-01  1.0091804777164155e+00  1.0176262872835324e+00  8.8079031242879779e-01  9.1650451977762093e-01  9.7053928353429708e-01  7.0590160622804765e-01  9.2270934402568550e-01  7.5853416857164735e-01  1.1135696306209488e+00  9.2301399296479769e-01  9.1180585966799910e-01  7.2055146860446007e-01  6.6928138295470851e-01  8.5940460960118503e-01  8.8694521688770933e-01  8.7726070538198975e-01  8.4302155403772816e-01  8.9680547084490425e-01  1.0578400941545092e+00  7.9377697469929842e-01  8.5309234345012741e-01  8.7849540902027889e-01  9.6037674451126642e-01  8.1839198459199480e-01  8.6044531875486685e-01  8.3117591426270188e-01  8.7416165448419703e-01  8.8888867978574138e-01  7.6718030050600727e-01  6.7521016307804671e-01  7.9873662899039533e-01  6.8925616438135417e-01  1.1405657776031670e+00  1.1390355969433383e+00  7.6388720286438283e-01  1.0789734728471969e+00  7.6196874703878936e-01  1.0391358581201311e+00  7.4282794447280753e-01  9.4671895868549771e-01  8.5884038755298209e-01  1.0915525819214487e+00  9.6968702176573840e-01  1.1177016356073513e+00  1.1259602402979656e+00  8.2452691473148554e-01  8.4239537046716328e-01  8.3334675445061435e-01  7.4207755722495494e-01  7.3696130239440583e-01  8.4394470155720902e-01  1.1176316902247625e+00  8.3494759671041419e-01  7.0733643421227632e-01  8.1481799570443392e-01  9.2018694375365251e-01  1.0327070343770404e+00  9.4790369985404044e-01  9.6101980180205937e-01  9.3250148157571744e-01  6.9639561613694978e-01  9.1368943006813463e-01  1.0314737286604267e+00  7.9397165033831507e-01  1.1199819454490330e+00  8.6581787909814834e-01  7.5385346519091712e-01  7.3019442289920056e-01  7.4312683958213865e-01  1.0578567211717118e+00  1.0285201568047173e+00  7.6906115351521342e-01  8.1115288042117928e-01  1.0638039491494453e+00  8.6395177967289338e-01  1.1403456365891254e+00  1.0840429838501999e+00  8.4290456252276402e-01  9.7150883094978546e-01  1.0460870661599311e+00  9.3939089085637595e-01  9.8176973019943814e-01  7.5525511287793334e-01  7.1561857679962593e-01  8.0245187191635292e-01  1.0599383469777894e+00  8.2444159115245519e-01  9.2939873895225067e-01  6.6381211161976295e-01  8.2066393915344504e-01  8.3040922274254436e-01  1.1306018807216902e+00  9.4705065129752641e-01  6.6718528113631803e-01  1.0945713754416684e+00  8.9429109038393595e-01  9.0523046014998798e-01  9.7471049625642947e-01  9.0924764579849005e-01  1.0961434651271422e+00  1.0232979970818987e+00  7.7871384712007974e-01  1.1487962877121998e+00  9.1615607055064718e-01  9.8264430366372080e-01  9.6478811587824476e-01  1.1492255365549857e+00  7.2373478458294382e-01  8.8346808225301054e-01  1.0599007444952580e+00  9.3480099596253441e-01  7.9625608446321372e-01  8.3740240539692812e-01  1.0886212287151200e+00  1.1341395837675030e+00  9.2754387436189645e-01  9.5140265880520047e-01  8.1724726810469517e-01  1.1327708784028883e+00  1.1368110940069698e+00  7.7431569227153529e-01  8.3982527558059139e-01  8.1724757679845494e-01  9.2778127470733662e-01  8.9443470459785579e-01  9.8280946563241034e-01  7.9615992250141032e-01  1.1012197042883929e+00  9.3240722244089269e-01  8.6842279398929234e-01  8.2403193039834999e-01  9.2958438922016362e-01  1.1255014915164399e+00  9.2320558310171630e-01  9.2605639447218957e-01  1.1388967548233286e+00  7.3984156376992083e-01  6.5516934006303851e-01  8.9217922013056072e-01  8.8408863387034853e-01  9.8516403481375214e-01  1.0799889596518240e+00  7.9339357865367988e-01  8.8224264333983382e-01  8.7475804854624917e-01  9.0962675860229358e-01  7.1851171357922106e-01  9.0588609149633270e-01  6.6203917653194522e-01  7.9079570980051583e-01  8.4835893896892223e-01  1.0773834538151230e+00  1.0227517826407395e+00  8.8858624316986679e-01  1.1015416969409502e+00  8.3821514491008509e-01  9.8166321717273386e-01  7.8759818974002016e-01  1.1101495413898572e+00  1.0815271532398993e+00  8.4924761354173894e-01  9.0312679756954495e-01  6.9073416109011720e-01  9.1854937300106887e-01  1.0213449745518803e+00  7.5927520956517436e-01  7.2724452183269717e-01  6.4602146051670239e-01  8.0331404530174289e-01  1.1066280522390473e+00  9.1880800796390516e-01  7.4730570354010206e-01  9.7726724548734112e-01  7.5376486443787205e-01  5.9669962946284949e-01  6.2319638110344255e-01  6.4572899821627905e-01  1.0196954828204106e+00  9.2455280064492584e-01  1.0730451309791187e+00  7.9894640063703648e-01  8.3355154797632902e-01  9.5321441534756834e-01  1.0465062322615803e+00  7.6544707505070597e-01  6.9638760416782686e-01  7.3904833490034538e-01  6.0079130221920074e-01  7.2677713548197254e-01  7.5041937531607283e-01  1.0785498549396655e+00  1.0415533488238664e+00  9.3373749680704043e-01  8.9124801172734081e-01  8.3316767994874918e-01  9.2831332658493249e-01  6.9582648079141052e-01  8.8920194671879482e-01  8.2123617667485027e-01  7.5795111803130522e-01  8.4830320438846774e-01  8.8442227838969234e-01  8.8180329414403125e-01  1.0415190029806503e+00  7.7343174453532970e-01  8.1619869881546747e-01  1.1432255347588902e+00  1.1123708959650052e+00  9.5936452322641774e-01  7.9408101414098653e-01  8.7039788584598532e-01  8.5323935952423169e-01  1.1150774478622296e+00  8.3854455648876924e-01  8.2474653552890165e-01  7.8064357209302893e-01  1.1316100541048708e+00  8.5801385456885726e-01  8.4817372995852836e-01  5.8447336010262607e-01  6.0674987896188981e-01  9.4427674128503136e-01  9.4342730065897196e-01  1.1393133731608749e+00  8.1235513508958646e-01  8.5513232127400085e-01  6.1528421680546896e-01  8.8751012649815597e-01  8.5678027166814053e-01  8.3110982493310237e-01  9.5742700861329355e-01  1.1452816105050005e+00  6.8381919834208615e-01  1.0946066761864597e+00  5.6777671684810282e-01  1.1368822306088071e+00  7.9419038261932673e-01  8.5727629401182437e-01  9.3812681789631291e-01  1.0436521841619593e+00  6.5216305741996583e-01  9.2839445909375951e-01  7.5293339320998387e-01  9.8460762041117211e-01  1.1165878365611777e+00  6.2799468390935165e-01  7.7188837332077154e-01  6.5542559333250905e-01  9.8681798907398188e-01  9.5533204243481029e-01  8.9935752672632008e-01  1.0152982860083646e+00  8.4267082031428131e-01  8.9710761548468310e-01  7.3990301288200866e-01  9.2804126255770447e-01  7.4034303677171720e-01  8.1766818754650361e-01  9.2412236928626157e-01  7.7265287263532234e-01  7.3737122309850445e-01  7.6287877160251993e-01  6.7238193266310409e-01  8.0654431908200686e-01  7.7151281657349791e-01  1.0102204482366908e+00  8.4762969524385268e-01  6.4915233994123656e-01  7.8752218140827845e-01  9.2165722025450936e-01  9.0161661326939846e-01  9.2237694790102065e-01  7.2706151211554637e-01  1.0687234717711511e+00  1.0492723169649407e+00  7.8988330088741521e-01  8.0990038208742987e-01  8.6900200861163124e-01  7.2414763826427209e-01  8.4228596434844560e-01  9.2479906054048644e-01  8.1972060455909379e-01  8.6507236909893570e-01  7.3298564789087406e-01  1.1262498922004145e+00  9.2398518114216965e-01  8.5503562628237373e-01  1.0554268491994889e+00  9.3539408237285038e-01  9.2448699652988431e-01  8.2656802718051259e-01  8.0065345404738597e-01  1.0305371028020109e+00  9.3532757276574308e-01  7.0670871725710438e-01  1.0145222558697899e+00  9.6308369881886069e-01  8.6166881750809710e-01  9.7552349355360579e-01  1.1315227828709953e+00  8.3778833652886342e-01  8.6191671825271288e-01  7.7527304699577237e-01  1.0611391124049039e+00  8.6210154722111565e-01  8.9134534186002823e-01  9.2047062278888003e-01  1.0129761651031990e+00  7.1075555357102849e-01  7.9989023836411288e-01  1.1320029662211191e+00  8.5377494667576592e-01  9.3477553426623361e-01  1.0703193567163614e+00  7.3252035761584522e-01  1.0153595984843247e+00  1.1387935486835818e+00  6.9721361401696569e-01  7.3794348845795255e-01  9.5431938475062383e-01  7.4905738073337536e-01  8.1680756958947542e-01  5.6397930316533507e-01  7.3668123074044434e-01  1.1473051620610708e+00  1.1000913085378543e+00  1.0879490912579235e+00  1.1069486684606238e+00  9.5709353615039805e-01  1.0899366577800180e+00  8.6133499810986514e-01  8.9877804097946190e-01  9.2777107343110221e-01  9.2206282985215582e-01  9.7605630099905627e-01  9.8066833093162631e-01  8.7180966187980646e-01  1.0570309141372483e+00  1.1404749019847880e+00  8.7293064639020745e-01  1.1351906083853092e+00  9.4947266724327595e-01  1.1180707714234479e+00  1.1305866726656897e+00  9.7574721501245587e-01  8.6785164934974035e-01  9.6738813400264589e-01  1.0080891038838411e+00  8.3594597459583997e-01  1.1033902325526759e+00  1.0741866339543824e+00  7.6108594992514766e-01  1.1191065526891768e+00  5.5030064434313630e-01  9.2191842884524966e-01  1.0000229426630962e+00  7.9496465633530067e-01  9.1268446242649481e-01  1.0139144251572592e+00  1.0609345785289539e+00  1.1255644820104791e+00  1.1444931975243040e+00  9.4456905407281455e-01  1.0330154836580172e+00  1.1479847204756439e+00  8.0656594727409414e-01  7.3103754891827422e-01  1.1133744599828321e+00  9.3009317251466028e-01  8.8667559362597026e-01  1.0723631160019642e+00  8.8745832240545919e-01  9.1308794563392026e-01  7.9618563273668441e-01  8.5043096664137530e-01  8.9900547024244359e-01  9.5239633977019966e-01  8.2740497050304462e-01  9.2955841137502104e-01  9.4289223276418310e-01  8.0347593677967410e-01  9.4303343001938089e-01  1.0453307221786095e+00  7.3842617240032105e-01  1.0742983060444524e+00  9.1195983271054704e-01  8.8981134603333556e-01  8.4979341335022696e-01  8.7868226325711773e-01  9.3640773487117313e-01  1.0453762102943156e+00  7.9903563610830808e-01  8.4854321271690736e-01  7.8898812769964244e-01  8.3323199891508848e-01  8.1793284239724273e-01  1.0914619597980504e+00  8.7766000167757141e-01  7.9510344410163680e-01  7.2592548633941145e-01  7.2858267055374615e-01  9.4128574001991083e-01  1.0789761875919930e+00  9.2494470113458216e-01  7.8516693373487045e-01  8.1405825785014740e-01  9.2649861531772792e-01  9.2672756690064750e-01  8.2799025500678303e-01  1.0123108497351343e+00  9.8843644529400410e-01  9.7256936928345605e-01  1.0959996135131849e+00  1.1535891151551392e+00  1.1086670269651677e+00  1.0271684031838468e+00  9.8800118168479578e-01  1.0663669993314107e+00  1.1439511712696619e+00  9.3014450665552961e-01  1.1529151129585886e+00  9.2663116777971488e-01  9.5165580111721404e-01  8.7263371509899834e-01  8.4489416067693823e-01  1.0959959179596679e+00  8.2684330717873633e-01  6.9752669035344150e-01  9.3439584961414690e-01  1.0303627218936644e+00  9.2538976042208321e-01  1.1438384487988615e+00  1.1146354620186463e+00  9.0458779933392308e-01  1.1307757550526363e+00  1.1176445595003277e+00  1.0753436315744285e+00  8.7452716641734618e-01  1.0891384669302764e+00  9.6372381955033004e-01  6.9271235565030265e-01  1.1013903778926675e+00  8.3141641094935592e-01  1.0436652532258359e+00  1.0101398589830184e+00  8.1102568611852643e-01  7.3186923400792592e-01  8.4202458382269219e-01  9.1169083291823994e-01  1.0582368808769580e+00  7.1299310932349469e-01  1.1413682558771152e+00  8.9980259889172864e-01  9.5979651408712774e-01  5.5750800391810473e-01  9.4444587982169925e-01  6.9819357657081504e-01  6.4257220712837626e-01  9.6309275962045426e-01  1.0653287407051866e+00  1.0397976279360130e+00  8.7449059197369017e-01  1.0109264066087493e+00  1.0680248750476922e+00  1.1396289867019889e+00  8.6077333847230242e-01  7.1191873336598688e-01  9.0645671794653893e-01  8.9869299906196631e-01  6.6974344733706104e-01  8.2897820167492020e-01  1.0234836499525801e+00  6.7979237361335243e-01  9.9060876108663432e-01  9.3910382610180976e-01  7.5823608322211034e-01  9.0406444876570591e-01  9.6993079887154332e-01  7.5153168171227014e-01  7.0752328945074860e-01  9.8891802049606836e-01  1.0555437628842299e+00  1.1262885515165306e+00  9.2664581357060472e-01  9.1434999351440360e-01  8.5964930351324820e-01  9.7270937012018577e-01  7.8039361038615107e-01  8.2541340764194659e-01  9.6591945218219233e-01  </DataArray> 
</PointData> 
</Piece>
</UnstructuredGrid>
</VTKFile>