<?xml version="1.0"?>
<VTKFile type="UnstructuredGrid"  version="0.1"  >
<UnstructuredGrid>
<Piece  NumberOfPoints="622" NumberOfCells="1116">
<Points>
<DataArray  type="Float64"  NumberOfComponents="3"  format="ascii">-6 -2 0  -6 2 0  6 2 0  6 -2 0  -2.8 0 0  -1.2 0 0  -5.500000000001853 -2 0  -5.000000000003705 -2 0  -4.500000000005556 -2 0  -4.000000000007409 -2 0  -3.50000000000926 -2 0  -3.000000000011112 -2 0  -2.500000000012963 -2 0  -2.000000000014814 -2 0  -1.500000000016665 -2 0  -1.000000000018516 -2 0  -0.5000000000203677 -2 0  -2.204547655537681e-11 -2 0  0.4999999999796305 -2 0  0.9999999999814779 -2 0  1.499999999983327 -2 0  1.999999999985175 -2 0  2.499999999987029 -2 0  2.999999999988882 -2 0  3.499999999990735 -2 0  3.999999999992589 -2 0  4.49999999999444 -2 0  4.999999999996293 -2 0  5.499999999998147 -2 0  6 -1.500000000001387 0  6 -1.000000000002774 0  6 -0.5000000000041616 0  6 -5.505595979116151e-12 0  6 0.4999999999958384 0  6 0.9999999999972258 0  6 1.499999999998613 0  5.500000000001853 2 0  5.000000000003705 2 0  4.500000000005556 2 0  4.000000000007409 2 0  3.50000000000926 2 0  3.000000000011112 2 0  2.500000000012963 2 0  2.000000000014814 2 0  1.500000000016665 2 0  1.000000000018516 2 0  0.5000000000203677 2 0  2.204547655537681e-11 2 0  -0.4999999999796305 2 0  -0.9999999999814779 2 0  -1.499999999983327 2 0  -1.999999999985175 2 0  -2.499999999987029 2 0  -2.999999999988882 2 0  -3.499999999990735 2 0  -3.999999999992589 2 0  -4.49999999999444 2 0  -4.999999999996293 2 0  -5.499999999998147 2 0  -6 1.500000000001387 0  -6 1.000000000002774 0  -6 0.5000000000041616 0  -6 5.505595979116151e-12 0  -6 -0.4999999999958384 0  -6 -0.9999999999972258 0  -6 -1.499999999998613 0  -2.796147781337886 -0.07841371226233997 0  -2.784628224322852 -0.1560722576115546 0  -2.765552268586196 -0.2322277418021561 0  -2.739103626009626 -0.30614674589063 0  -2.705537011479457 -0.3771173894593519 0  -2.665175689843037 -0.4444561864141836 0  -2.618408362691456 -0.5075146273293722 0  -2.565685424950688 -0.5656854249477874 0  -2.507514627332613 -0.6184083626887972 0  -2.444456186417533 -0.6651756898407991 0  -2.377117389462776 -0.7055370114776264 0  -2.306146745894456 -0.7391036260080417 0  -2.232227741806235 -0.7655522685849585 0  -2.15607225761588 -0.784628224321992 0  -2.078413712266957 -0.7961477813374315 0  -2.000000000003407 -0.7999999999999998 0  -1.921586287739523 -0.7961477813380696 0  -1.843927742389945 -0.7846282243231506 0  -1.767772258198879 -0.7655522685865098 0  -1.693853254109962 -0.7391036260098718 0  -1.622882610540873 -0.7055370114795768 0  -1.555543813585629 -0.6651756898429115 0  -1.49248537267008 -0.6184083626910072 0  -1.434314575051535 -0.5656854249500112 0  -1.381591637310384 -0.5075146273316149 0  -1.334824310158267 -0.4444561864161359 0  -1.294462988521423 -0.3771173894609975 0  -1.260896373990956 -0.3061467458920351 0  -1.234447731414138 -0.2322277418032578 0  -1.215371775677287 -0.156072257612254 0  -1.203852218662147 -0.07841371226267954 0  -1.203852218662115 0.07841371226235888 0  -1.215371775677132 0.156072257611478 0  -1.234447731413795 0.232227741802127 0  -1.260896373990353 0.3061467458905811 0  -1.294462988520456 0.3771173894591898 0  -1.334824310156812 0.444456186413959 0  -1.381591637308413 0.5075146273292139 0  -1.434314575049147 0.5656854249476236 0  -1.492485372667197 0.6184083626886415 0  -1.555543813582104 0.6651756898405565 0  -1.62288261053673 0.7055370114773629 0  -1.693853254105125 0.7391036260078683 0  -1.767772258193396 0.7655522685848468 0  -1.84392774238373 0.7846282243219146 0  -1.921586287732977 0.7961477813374253 0  -1.999999999996558 0.8 0  -2.078413712260516 0.7961477813380661 0  -2.156072257610207 0.7846282243231205 0  -2.232227741801178 0.7655522685864928 0  -2.306146745890059 0.7391036260098632 0  -2.377117389459098 0.7055370114795929 0  -2.444456186414405 0.6651756898428894 0  -2.50751462732998 0.6184083626909587 0  -2.565685424948549 0.5656854249499272 0  -2.61840836268981 0.5075146273313792 0  -2.665175689841831 0.4444561864159886 0  -2.705537011478692 0.3771173894607835 0  -2.739103626009108 0.3061467458918818 0  -2.76555226858589 0.2322277418031643 0  -2.784628224322724 0.1560722576122001 0  -2.796147781337853 0.07841371226267957 0  0.6720367661319522 0.1312687487860887 0  -4.389489086394485 0.3544472233398538 0  -3.816221554046232 -0.6097988664512611 0  -3.552726516474419 0.9342959806851625 0  -0.2536610443052337 0.8162373554653355 0  -0.1843238977799138 -0.6649951410982842 0  -3.613359951620445 0.1086570650978273 0  -3.146954163409593 -1.074378179335012 0  -0.4255266515582625 0.07734891565364931 0  -0.9413731612925856 1.168014724254929 0  -2.947764053183577 1.200029094390044 0  -0.8319852757411681 -1.058626838707328 0  2.675418990747819 -1.137325591670363e-12 0  -2.602010642259726 -1.287560129290477 0  -2.334401622060699 1.335006108940604 0  -1.524718496628401 1.32890816230333 0  -1.369813829148039 -1.26145150481762 0  -3.294065651892671 -0.4630240940010318 0  -2.072749204569071 -1.388981302138359 0  -0.7546165313921411 0.5601792161340381 0  -3.224879719581335 0.4382689715877901 0  -0.7073137361349826 -0.4625305410752652 0  4.326242945813966 0.3262429458150917 0  -3.187880061217201 0.07437712177460168 0  -2.94792024259867 0.7030255657465158 0  -2.678809277907896 0.9152683582887104 0  -4.911626141576894 -0.5700186648601188 0  -2.980647654587299 -0.5685006168686053 0  -2.769438919323564 -0.8202775213660614 0  -1.936950121013948 1.220669938589229 0  -0.8971643766260747 0.2762459428874499 0  -0.8760878018253068 -0.06836412137772707 0  -1.086827485441145 0.6772548942594016 0  -1.31355927028917 0.8808768148414213 0  -1.034266382739347 -0.5912381576649568 0  -1.241594139118264 -0.836771920085274 0  1.667161185638911 -0.6367996576268693 0  1.778189842800902 0.7191719841256095 0  -3.065106827511819 -0.266795371500425 0  3.714311277362231 -0.7275465302492842 0  -1.728329421201519 -1.09954751473283 0  4.870629493137888 -0.7325040699186681 0  -3.024707894719303 0.2567561910603656 0  -4.375540207252226 1.228935704312058 0  -2.272077148001781 -1.086192861256262 0  3.351408248797803 0.9175227128129597 0  -5.141847419540732 0.8091901960109126 0  0.5769368286199241 1.111816231125821 0  0.7411482978492124 -1.079569101289617 0  -1.074013749991219 0.430231207546053 0  -1.04664573441257 -0.3358382377487088 0  -2.439195336951085 0.9224778883059374 0  -2.902607676587358 0.4360473765597399 0  -1.629450174302152 1.035617385691805 0  -2.146859933125513 1.032375363966426 0  2.587625196444542 -0.9999926061845814 0  -2.529286802957126 -0.8830616815739111 0  -1.493798157676768 -0.8794705728517196 0  -1.932158132383022 -1.026681566564148 0  -4.09956359341904 -0.1372485582942864 0  5.055802064425553 1.050933510837308 0  -4.413659685984891 -1.207626391697488 0  -4.961411026474009 0.1201902955685026 0  -3.771151641156835 -1.303594976371997 0  -3.001321503506133 -0.04919177107285733 0  -3.881733605683001 0.5124517634812003 0  -0.1971627317996802 -1.336445372382849 0  -2.742825060181767 0.6732573903735507 0  2.520439429199979 1.129372838786189 0  -1.026326428668429 0.1384273198437734 0  -2.779290004861729 -0.5844691722665721 0  -2.895095740820851 -0.4261289730972082 0  -1.275682076193407 0.6630703172777138 0  0.1045291701958869 0.3433373435296472 0  5.175560481258801 0.0608563229178163 0  -1.211574424201636 -0.5847362589868093 0  -1.85847006217035 1.007917631940711 0  4.152535916385823 1.131901130662082 0  -1.04878257200685 -0.1253529988863012 0  1.432836501626023 0.05634449574318775 0  3.560672936003603 0.01188897172456759 0  -3.351823698389408 -0.1821329582635926 0  -5.145153363200735 -1.259166339382508 0  0.03473693330309885 -0.1724947236036572 0  -4.377830921337186 -0.6172564090242229 0  -0.3943750728122595 1.410897156959435 0  -1.661073679471639 -0.9342065000197183 0  -1.49086536677686 0.8331714487926741 0  -2.584486130952032 0.7871482690034864 0  4.270535884593893 -1.259607924744415 0  -1.757417028085795 -1.505182186951191 0  -3.430586920998477 1.425579221231371 0  -2.917598827418652 -0.2298465409534677 0  -2.328978331116049 -0.9300959620317677 0  -2.148543000691344 -0.9751580214451921 0  1.002654111360038 -0.4521702885594788 0  -4.628651824080903 -0.1127998710567241 0  -2.948904386702482 0.1555943115410545 0  0.4165242577134774 -0.5629432649478633 0  -3.698137692471105 -0.3173027948676715 0  -3.491400684461791 -0.7926319721650269 0  -0.3844454817728994 0.4680628696134375 0  -3.207830713508533 0.9778749990559993 0  3.229909751065535 -1.326302454776001 0  5.330007715336748 -1.312905173261894 0  -2.649214054100534 -0.713314536278899 0  1.342022964818772 -1.328315248672686 0  -2.556460939068198 1.202372762828344 0  -0.3497819755044588 -0.3080427614060888 0  -4.928440909495523 1.387622767511967 0  1.309170811945155 1.337467055109531 0  -1.352031940181449 -0.7151198948590243 0  -0.6132855723904642 0.9519045895123004 0  4.266838388406324 -0.3707357390867402 0  -3.834389788310238 1.371594798941152 0  -1.187890214580146 0.4851427123079557 0  -1.109118888029193 0.3185947354467283 0  0.1837819401738013 1.234799661476361 0  1.108165254659559 0.6237223548284967 0  -0.5266600156584522 -0.8113991260886402 0  -4.643822083543982 0.7834094684931707 0  -1.146235204666366 -0.4027330721405781 0  2.049029845992713 -0.2664662499985428 0  2.002665761665898 -1.328912351029848 0  -1.678783505586872 0.8978832065736417 0  -2.049499525232052 0.9483890761590005 0  -2.229972236535132 0.9181006323151361 0  -3.033763529945482 -1.54240494280775 0  -3.562344364746847 0.5622550957224539 0  -5.524396842903405 -0.2709714867672603 0  -0.9710982764034376 -1.549038578476423 0  3.058819320130555 -0.5375106252795963 0  -4.170365230099585 0.7342553699229977 0  -1.045878746461381 -8.187420622554697e-05 0  -1.864822945411764 -0.9219031104673102 0  -0.6251005091687033 -0.2120650512195049 0  2.317562622406059 0.4886417799113238 0  -0.6674371191466613 0.1483993095055008 0  -2.705757882979874 1.609712312948224 0  
[...]
<PointData  Scalars="f_24"> 
<DataArray  type="Float64"  Name="f_24"  format="ascii">9.9999997559435327e-01  9.9999997559435327e-01  9.9999997559435327e-01  9.9999997559435327e-01  4.6282897129350425e-01  8.5908790548305736e-01  9.8470104633328159e-01  9.7018613501653206e-01  9.5641839104841520e-01  9.4562869900029067e-01  9.3829408183554663e-01  9.3585692999623549e-01  9.3230732876313482e-01  9.1066595363260094e-01  8.5749590709472034e-01  8.5021761164789278e-01  9.4165793069378900e-01  1.0506037736629263e+00  1.1107912483149891e+00  1.1319787267844628e+00  1.1354663539397409e+00  1.1293629484221064e+00  1.1161567792567675e+00  1.0997912274293633e+00  1.0838613784398234e+00  1.0658782958242137e+00  1.0503509916658189e+00  1.0323529062190291e+00  1.0171236428080455e+00  9.9999997559435327e-01  9.9999997559435327e-01  9.9999997559435327e-01  9.9999997559435327e-01  9.9999997559435327e-01  9.9999997559435327e-01  9.9999997559435327e-01  1.0169576320244191e+00  1.0325735483710967e+00  1.0503119118904505e+00  1.0655121729031471e+00  1.0834703160281260e+00  1.1006310005992326e+00  1.1152141963645150e+00  1.1291517782095493e+00  1.1348935512879335e+00  1.1312010293966559e+00  1.1107214056778956e+00  1.0534227109792871e+00  9.4490980990921369e-01  8.4954696142556918e-01  8.6930909337108009e-01  9.1010035201033634e-01  9.3306497369381047e-01  9.3565865642485047e-01  9.3822760180953202e-01  9.4495488461230270e-01  9.5659636871538012e-01  9.6976737162186444e-01  9.8428495846647368e-01  9.9999997559435327e-01  9.9999997559435327e-01  9.9999997559435327e-01  9.9999997559435327e-01  9.9999997559435327e-01  9.9999997559435327e-01  9.9999997559435327e-01  4.6679954070427554e-01  4.7922342763802384e-01  4.8538618265667366e-01  5.0811656453485055e-01  5.2285756338847800e-01  5.6444386006696823e-01  5.7274906707417028e-01  6.2639794174834718e-01  6.3503083853641795e-01  6.9906363086492529e-01  7.2371237766540941e-01  7.9283293772235985e-01  8.2951238363458946e-01  8.8291581451425893e-01  9.1735597851850414e-01  9.4439500554262124e-01  9.5512651405715066e-01  9.4198779716321546e-01  9.1441358348522206e-01  8.7987501917526934e-01  8.4773332279416502e-01  8.2230689590485162e-01  8.0869668781774806e-01  8.0326291673259487e-01  8.0660543841278032e-01  8.1380850383940229e-01  8.2430420887831257e-01  8.3498277538585064e-01  8.4469601213429868e-01  8.5238983859731465e-01  8.5749954562699560e-01  8.5748804160200343e-01  8.5260185540713296e-01  8.4503826045349117e-01  8.3530859409437463e-01  8.2434861125102321e-01  8.1429920962235314e-01  8.0640272580424766e-01  8.0349963715257822e-01  8.0846207410580795e-01  8.2301795365365071e-01  8.4907926861264937e-01  8.8350355030332350e-01  9.1838816970836112e-01  9.4791145907636387e-01  9.5814221833876290e-01  9.5042104742842548e-01  9.2600610822625995e-01  8.8190901255402487e-01  8.5028105670417342e-01  7.9798769861625507e-01  7.3403441056086993e-01  6.7219515586515144e-01  6.6591774168355744e-01  5.9602658740178827e-01  5.8453539062224324e-01  5.5764662341442650e-01  5.3118801420477868e-01  5.0375664722564373e-01  4.9906889847609093e-01  4.7532856768952553e-01  4.6871905538108144e-01  1.0826222559077847e+00  9.3810539484888100e-01  9.1336966116261409e-01  9.1715467145292040e-01  9.7123443882098670e-01  9.8862902436823952e-01  8.7877463486898388e-01  9.2109675083220777e-01  9.4663793216310677e-01  6.9955704904740879e-01  9.3009178648805546e-01  7.2200909552944392e-01  1.1065568983763709e+00  9.3879663379395017e-01  9.3385936170693928e-01  8.0511635797572423e-01  7.5483923655115814e-01  8.5729291879159375e-01  9.2193949085042459e-01  8.5809640280255606e-01  8.4051884563620416e-01  8.7824648662802518e-01  1.0551559363263823e+00  7.9002819656590106e-01  8.5507824696078694e-01  8.9471480138793169e-01  9.6155370910102256e-01  8.1963846866067058e-01  8.7285125566687471e-01  8.9496656914364636e-01  8.6697926096313926e-01  8.7945243160042230e-01  7.8703123610152326e-01  7.5847437205776491e-01  8.0930023026126308e-01  7.5394571808208133e-01  1.1181516969562131e+00  1.1188811129027390e+00  7.6216276112696957e-01  1.0752525493610874e+00  8.6129284580393684e-01  1.0373859215037142e+00  7.4213183189416043e-01  9.4955233972009068e-01  9.0516139573370069e-01  1.0873063836065111e+00  9.7087002681443113e-01  1.1005890886924461e+00  1.1054547767677116e+00  8.3248907675879991e-01  8.4550138281457454e-01  8.7458600512019047e-01  7.4626064975182616e-01  8.4155804001911039e-01  8.9449408811454800e-01  1.1108923141944644e+00  8.7049567294249819e-01  8.1212289560554296e-01  8.9005748175584942e-01  9.2024347988841682e-01  1.0312658287504985e+00  9.5073936383920732e-01  9.6190531029458071e-01  9.3702439573428842e-01  6.9635628773686442e-01  9.1404468327484334e-01  9.8855872314227466e-01  8.0853949101776257e-01  1.1132140881239809e+00  8.6246451429207138e-01  7.6758512131718126e-01  7.3567460954201225e-01  7.9060336260866459e-01  1.0310660885107912e+00  1.0272110920678201e+00  8.0174475310044946e-01  8.9165574137563819e-01  1.0609707366253349e+00  8.6135330124877207e-01  1.1134736621025498e+00  1.0798918532941315e+00  8.3957829123331196e-01  9.7305479511849502e-01  1.0181762496997513e+00  9.4072532060026315e-01  9.2542653268016128e-01  8.6022701080036601e-01  8.1266518622200190e-01  8.3432159673255246e-01  1.0573242815755006e+00  8.8113039689468564e-01  9.3535937546386061e-01  6.6897206638104345e-01  8.6898176325294241e-01  8.8439643266857448e-01  1.1030060638789185e+00  9.4787664986188025e-01  6.7030964482963806e-01  1.0706673323601881e+00  8.9320265336876881e-01  9.0629033922957158e-01  9.4659884390765392e-01  9.1208541029189383e-01  1.0919918368106059e+00  1.0222892733332205e+00  8.0608215363460423e-01  1.1254475504927888e+00  9.3343786418981045e-01  9.5690807083342933e-01  9.6673758291498790e-01  1.1249636475711942e+00  7.9020590625029785e-01  8.2252333675561462e-01  1.0571114485021162e+00  9.3932724361802467e-01  8.1716922409091730e-01  8.4271769975640698e-01  1.0695189380190808e+00  1.1076449715822165e+00  8.7795478035881269e-01  9.5296524642570668e-01  8.3009471361528542e-01  1.1179968091560977e+00  1.1253166190637360e+00  8.7404468219857856e-01  8.9512940382152739e-01  8.6625002305500387e-01  9.3671526996751786e-01  8.9389575493480655e-01  9.8327086241311712e-01  7.8874140820890137e-01  1.0957538592206932e+00  9.3391035263055433e-01  8.6457098350874595e-01  9.0431835427377449e-01  9.1027753809030942e-01  1.1156249418093216e+00  9.0576641983507911e-01  9.3675702033917285e-01  1.1265219213064985e+00  7.5097110173894166e-01  6.6481250132062819e-01  8.8031084505350954e-01  8.8439445155357044e-01  9.8577905986631453e-01  1.0598529267184671e+00  8.1850376451646500e-01  8.8204860756024206e-01  9.0173510314470429e-01  9.0914139289706386e-01  7.9168506193195443e-01  8.8866627552938926e-01  6.8040473209792196e-01  7.7034160573638311e-01  8.5073243439733282e-01  1.0566849737671393e+00  1.0217065308604403e+00  8.9111920279565049e-01  1.0971310889927732e+00  8.0997614323460165e-01  9.8213210703049159e-01  7.8406153880616136e-01  1.0872396731553713e+00  1.0779677698014594e+00  8.4606279484275637e-01  9.0862853389657927e-01  7.2061766675258321e-01  9.2780163466139498e-01  1.0203765352963272e+00  8.0450593375471424e-01  7.6150030911785482e-01  7.2797587113274187e-01  8.0197727065010038e-01  1.1008077978686299e+00  9.3358847284347080e-01  7.5530976218779877e-01  9.7824216668956709e-01  8.5477693654590803e-01  6.0536653573109778e-01  6.3571717258190930e-01  6.9937077165263595e-01  1.0188106755059947e+00  9.2642424293033399e-01  1.0696371238992082e+00  8.4846189899049240e-01  8.9119180813996424e-01  9.5426657934491710e-01  1.0444488298185852e+00  8.1419630495383311e-01  7.2639707879589555e-01  7.8111677643739408e-01  6.0771596544028894e-01  8.0853864914317108e-01  8.0055707159892531e-01  1.0752080802943222e+00  1.0397128059281306e+00  9.3640702788365482e-01  8.9048389171412012e-01  8.3215777115342449e-01  9.3462972607209216e-01  8.0650051032657388e-01  8.7939041624785208e-01  9.0829577546099871e-01  8.5620522800297072e-01  8.5053598109559170e-01  8.1901697309792365e-01  9.1423563020709608e-01  1.0396166607347592e+00  8.0815415359634712e-01  8.3013686531706188e-01  1.1181284000349330e+00  1.1072676529124108e+00  9.6201641108556113e-01  8.1824733663268712e-01  9.0921310325967919e-01  8.4725178711542071e-01  1.0902733548404266e+00  8.9775130783209889e-01  8.7283611022819640e-01  8.2633361251426052e-01  1.1194204983510465e+00  8.1453485336162024e-01  9.1006962927294066e-01  5.9766859808899486e-01  6.2637101618861135e-01  9.4828449276830107e-01  9.4765658193637292e-01  1.1135344006719381e+00  9.0325246026966133e-01  8.4834518764950884e-01  6.3365660139124358e-01  8.8607472451391878e-01  8.5654176490823919e-01  8.3965842460763040e-01  9.5943031833001424e-01  1.1197473858930123e+00  7.1503423093226115e-01  1.0666408627562873e+00  5.7768428297649355e-01  1.1185835500002841e+00  8.3750990958249494e-01  8.5672771970354378e-01  9.0009335667707813e-01  1.0416579476389216e+00  6.7904617434719272e-01  9.3665865781819291e-01  8.0185082212045811e-01  9.8500215622349485e-01  1.1096668185798662e+00  6.5158511867188174e-01  8.0829900315194791e-01  6.8304465546705528e-01  9.8761131071225017e-01  9.2435579839014637e-01  9.2440506513154319e-01  9.7399786063867932e-01  9.0973532740431073e-01  9.1418911372959655e-01  8.3116136475174474e-01  9.2844506380695846e-01  7.8841038749845016e-01  8.6785988726894336e-01  9.2480474095027898e-01  8.2101063907689953e-01  8.3107424301615307e-01  8.1069931361274106e-01  7.7923914483171408e-01  8.0317267108263046e-01  8.6168378887808150e-01  9.8309272236009360e-01  9.2111563614130409e-01  7.4515717947172100e-01  8.8583609230962967e-01  9.3313707989241523e-01  9.3088002255000413e-01  9.2467021102096025e-01  7.2559802617784230e-01  1.0654797499007924e+00  1.0470453272388238e+00  7.8853354974808765e-01  8.8455782210958189e-01  8.6669268769458851e-01  7.6638643676949814e-01  8.3867516824874688e-01  9.3674438400049909e-01  8.1533174258765984e-01  8.7173656521437437e-01  7.3490178064404821e-01  1.1191650912084843e+00  9.2447962576291387e-01  8.5433408389304510e-01  1.0528904366501044e+00  9.4101735339533676e-01  9.3030273063039925e-01  8.2345363424796314e-01  8.0345004653899776e-01  1.0016706374184816e+00  9.3611911265606285e-01  7.0687793225045414e-01  1.0138494441499923e+00  9.6399921304760083e-01  8.5987611745918657e-01  9.7700300733389689e-01  1.1016330805771530e+00  8.4238402306423354e-01  8.6000022506538809e-01  8.0339270512729899e-01  1.0585240117135932e+00  9.1210048360847884e-01  9.1580926662681905e-01  9.2411464054449788e-01  1.0123878460253524e+00  7.5758856335832503e-01  8.1788561813226435e-01  1.1200235455519858e+00  8.5278223206022508e-01  9.4082168010674305e-01  1.0373079877180453e+00  8.1157098203097433e-01  1.0146565965964311e+00  1.1119244261162584e+00  7.3526920995308331e-01  8.0225031077498421e-01  9.5722093762618798e-01  7.7911645245613970e-01  8.5878044303651102e-01  5.7864839798281575e-01  8.0249426893962061e-01  1.1322446752808786e+00  1.0947518687774662e+00  1.0837079722784517e+00  1.1014466854298528e+00  9.5895380888548953e-01  1.0855039372225777e+00  7.9103649889996908e-01  8.9773043996999169e-01  8.5488815415243924e-01  9.2621864486056371e-01  9.1478036289913145e-01  9.8190033424907586e-01  8.6985908871389395e-01  1.0302588644137871e+00  1.1143787431988339e+00  8.7053859450514737e-01  1.1108652830999317e+00  9.5053575841275362e-01  1.0931167048055059e+00  1.1229024547743123e+00  9.7630389519153948e-01  8.6340208509958150e-01  9.6829937050674963e-01  9.8160882251920001e-01  8.5400620755199530e-01  1.0982943506219958e+00  1.0456956674685249e+00  7.6819866004168158e-01  1.0951313357413626e+00  5.6377236987096091e-01  9.0518543835935705e-01  9.5420186913271032e-01  8.9021359894972152e-01  8.7680264723195267e-01  1.0133085651899845e+00  1.0583347552818805e+00  1.1150797451021071e+00  1.1239237934439856e+00  9.4536855155375932e-01  1.0315649534502742e+00  1.1316354026467532e+00  8.7360895025107133e-01  8.3628722024668434e-01  1.1081556036696545e+00  9.3779288010395745e-01  8.8604105133795996e-01  1.0691581337750478e+00  9.1159376630989186e-01  9.2522494751590534e-01  8.1135045141738660e-01  8.4942119109408576e-01  8.9945509650444522e-01  9.2915320260010148e-01  8.9241904544312112e-01  9.3113275272162543e-01  9.4495775117435066e-01  8.4714917257328171e-01  9.1927507377164297e-01  1.0432398234974773e+00  7.8660256215338586e-01  1.0707362515985699e+00  9.1280047676108422e-01  8.9151853492661115e-01  9.0005469809669558e-01  8.7755616150737281e-01  9.3936534633714408e-01  1.0433431300901099e+00  8.1270999484752948e-01  8.7853475244161494e-01  8.8286809296923496e-01  8.4077352232070834e-01  8.6475971271586982e-01  1.0638935574400958e+00  8.7111922259710517e-01  8.1869550566466054e-01  7.2859309431981367e-01  8.1673982727764938e-01  9.4255496820264173e-01  1.0753858171311408e+00  9.3868481915831192e-01  8.7899950888013623e-01  8.2950053652678890e-01  9.0012553805680773e-01  9.3038758570719737e-01  8.3359552256991865e-01  1.0117515545691422e+00  9.8900292746534857e-01  9.7396887200318072e-01  1.0920313522511225e+00  1.1314542222051036e+00  1.0902573378612930e+00  1.0259755056840232e+00  9.8840535126565965e-01  1.0331544776575496e+00  1.1234168155842581e+00  9.3752602289284126e-01  1.1314369851146819e+00  9.3681587252815846e-01  9.5320402766641166e-01  8.4093858524602849e-01  9.2243186314759629e-01  1.0919760935742644e+00  8.7774617437871383e-01  7.3620321100207364e-01  9.3496369977575300e-01  1.0290197185684204e+00  9.3284146432826087e-01  1.1185776823761828e+00  1.0854293848140373e+00  8.7427792536846938e-01  1.1016885062468165e+00  1.1102544958345495e+00  1.0717186548966835e+00  8.9893654829697422e-01  1.0850642838694733e+00  9.4067084774513410e-01  7.9673813279416272e-01  1.0827977397771937e+00  8.5851191607989719e-01  1.0096526629045650e+00  1.0096779077196605e+00  8.1787089051105855e-01  7.2021153505949054e-01  8.3017217670548260e-01  9.1146429126282347e-01  1.0555760170178208e+00  7.7562587190699117e-01  1.1161212010710775e+00  9.0663278913971068e-01  9.6099498739812783e-01  5.7848583565814471e-01  9.4649584113874574e-01  7.8403205332569859e-01  7.1445654824001770e-01  9.6540210020046724e-01  1.0413498921408402e+00  1.0124762846691118e+00  8.6888589707999520e-01  1.0104584859714876e+00  1.0649116440865456e+00  1.1177165060391843e+00  8.6168367570212545e-01  7.6888100756318833e-01  9.0863483047645155e-01  8.8562317268864010e-01  7.1553526050553962e-01  8.9005292889377996e-01  9.9600787612030484e-01  6.8424759080843522e-01  9.9119191573776211e-01  9.4271534553567515e-01  7.5592560902094053e-01  9.0348062774092519e-01  9.7186673771786214e-01  7.4894548537697658e-01  7.2322897205660974e-01  9.8938583353012277e-01  1.0529322866046242e+00  1.1183212996370380e+00  9.3724285336434709e-01  8.9632168265699874e-01  8.5556747501167885e-01  9.7357542140471121e-01  7.3980305974047211e-01  8.6988303460102756e-01  9.6727472192060648e-01  </DataArray> 
</PointData> 
</Piece>
</UnstructuredGrid>
</VTKFile>