<?xml version="1.0"?>
<VTKFile type="UnstructuredGrid"  version="0.1"  >
<UnstructuredGrid>
<Piece  NumberOfPoints="406" NumberOfCells="722">
<Points>
<DataArray  type="Float64"  NumberOfComponents="3"  format="ascii">-6 -2 0  -6 2 0  6 2 0  6 -2 0  -2.8 0 0  -1.2 0 0  -5.500000000001853 -2 0  -5.000000000003705 -2 0  -4.500000000005556 -2 0  -4.000000000007409 -2 0  -3.50000000000926 -2 0  -3.000000000011112 -2 0  -2.500000000012963 -2 0  -2.000000000014814 -2 0  -1.500000000016665 -2 0  -1.000000000018516 -2 0  -0.5000000000203677 -2 0  -2.204547655537681e-11 -2 0  0.4999999999796305 -2 0  0.9999999999814779 -2 0  1.499999999983327 -2 0  1.999999999985175 -2 0  2.499999999987029 -2 0  2.999999999988882 -2 0  3.499999999990735 -2 0  3.999999999992589 -2 0  4.49999999999444 -2 0  4.999999999996293 -2 0  5.499999999998147 -2 0  6 -1.500000000001387 0  6 -1.000000000002774 0  6 -0.5000000000041616 0  6 -5.505595979116151e-12 0  6 0.4999999999958384 0  6 0.9999999999972258 0  6 1.499999999998613 0  5.500000000001853 2 0  5.000000000003705 2 0  4.500000000005556 2 0  4.000000000007409 2 0  3.50000000000926 2 0  3.000000000011112 2 0  2.500000000012963 2 0  2.000000000014814 2 0  1.500000000016665 2 0  1.000000000018516 2 0  0.5000000000203677 2 0  2.204547655537681e-11 2 0  -0.4999999999796305 2 0  -0.9999999999814779 2 0  -1.499999999983327 2 0  -1.999999999985175 2 0  -2.499999999987029 2 0  -2.999999999988882 2 0  -3.499999999990735 2 0  -3.999999999992589 2 0  -4.49999999999444 2 0  -4.999999999996293 2 0  -5.499999999998147 2 0  -6 1.500000000001387 0  -6 1.000000000002774 0  -6 0.5000000000041616 0  -6 5.505595979116151e-12 0  -6 -0.4999999999958384 0  -6 -0.9999999999972258 0  -6 -1.499999999998613 0  -2.776753453941174 -0.1914525314286965 0  -2.708364820523325 -0.3717785376335722 0  -2.598808598538216 -0.5304981265911284 0  -2.454451797386757 -0.65838709271366 0  -2.283683909636528 -0.748012994147384 0  -2.096429344207466 -0.7941670992780535 0  -1.903570655798842 -0.7941670992788195 0  -1.716316090368095 -0.7480129941491368 0  -1.545548202616307 -0.6583870927157747 0  -1.401191401463757 -0.530498126593356 0  -1.291635179477527 -0.371778537635196 0  -1.223246546059047 -0.1914525314295925 0  -1.223246546058803 0.1914525314286035 0  -1.291635179476594 0.3717785376334188 0  -1.401191401461634 0.5304981265909601 0  -1.545548202612898 0.6583870927134221 0  -1.716316090363093 0.7480129941472402 0  -1.903570655792394 0.7941670992780367 0  -2.096429344201276 0.7941670992788055 0  -2.283683909631911 0.7480129941491347 0  -2.454451797383697 0.6583870927157729 0  -2.598808598536385 0.530498126593196 0  -2.70836482052258 0.3717785376349917 0  -2.776753453940975 0.1914525314295042 0  0.4588466633941945 0.2704149791022056 0  -4.424312812173863 0.2760319703992994 0  -3.803977598762586 -0.6841584599595646 0  -0.1330968762779425 -0.6798763971615133 0  2.451109587541276 3.169800318630399e-13 0  -3.563610936250569 0.5929994091167295 0  4.204753319582647 0.2820669554523581 0  -0.4390897559348154 0.6178095532273566 0  -3.041446812595122 1.175550440315544 0  -0.9622132806516797 1.132103015222783 0  1.069493318942931 -0.773608156980569 0  -4.924330687080279 -0.7127064269610045 0  -3.024693497948964 -1.195179289656404 0  -0.9648749555625579 -1.256854520022574 0  -3.443624282349383 -0.2044158249759613 0  -0.5611500783757608 -0.1747080110423833 0  1.60270880116926 0.7487034276124258 0  3.488352576142236 -0.8228939860777884 0  4.816375011670135 -0.8163750116689444 0  3.243628045085357 0.8578172796997985 0  -4.228632884234073 1.228069101636678 0  -2.365220384435482 -1.356128547810356 0  -1.637465979486354 1.3571687267915 0  -1.642380978561139 -1.359365080147485 0  -2.362988915989869 1.356737096243695 0  -5.134120367293631 0.8356299802910161 0  2.077496878467794 -0.9514080034522553 0  4.960859291178299 0.9608592911785537 0  0.3293120056474302 1.148965409695154 0  -5.157560560414062 0.09447106214747865 0  -3.14779387667392 -0.6330563038825547 0  -3.148134455585257 0.4354299640428653 0  -0.8464439673630421 0.4159277415926296 0  -0.9918125625721008 -0.7191748422889824 0  -4.355349213295776 -1.234510499778242 0  1.582074659164868 -0.06850205959954866 0  2.400584045214166 1.204278622181321 0  5.102831660739063 0.03453404176596848 0  4.083259768981113 1.154272958349666 0  -3.992394834362243 -0.1621022234411988 0  0.4290302718942113 -1.225465289645401 0  -3.681487986394671 -1.310544246656267 0  -3.640289698916164 1.187023654838123 0  0.468851680921228 -0.447055967952278 0  3.315209904217932 0.05667935655546536 0  -2.541160649745046 -1.046980928586996 0  -1.45196684542695 1.044189935346116 0  -2.000844595891861 -1.207983108473125 0  -1.453092202970521 -1.061139264918894 0  -2.000050543938391 1.207806685704176 0  -2.548033154566413 1.04418993534851 0  4.13054585796652 -1.232871249381608 0  -0.3301617095463629 1.221692405319566 0  -0.2880491989587189 -1.359626628407983 0  -0.0758941643813178 0.132275811829787 0  2.826389221580753 -1.233168480096227 0  -2.922070412327736 0.7575752117792038 0  1.003070890178416 1.271347915034201 0  -5.319521816151902 -1.310543894393663 0  -1.070407062963812 0.7877698545098388 0  -4.562499863038985 -0.2302396981426722 0  -3.164226661545047 0.07179577787350272 0  -0.9091377812900333 0.132454654016971 0  4.116029045943655 -0.4851826871817362 0  5.316659189209927 -1.316659189208741 0  -0.9498828454673396 -0.4149758979014553 0  -4.037769805263969 0.6896174350675625 0  1.431664772855882 -1.327784137638992 0  -3.646693623568034 0.1600006358878044 0  -2.878371345483476 -0.7910345833001061 0  1.062603041385242 0.2894765870627741 0  -0.547955103783681 0.1635272504420374 0  -4.804809838419659 1.41016301576038 0  -3.042895319571192 -0.3694931303482478 0  -4.59252578392403 0.792267765362792 0  2.823271260730033 -0.5472430318427347 0  -4.28575390662405 -0.7521491832384866 0  -0.5524005545121191 -0.9037367558558163 0  1.815219025072439 1.388812135783969 0  -1.288398729718543 -0.8178399475601057 0  -5.424388493366639 1.35375165044146 0  -2.256991952837567 -1.049538527273222 0  -1.739586738723494 -1.052327527873255 0  -1.738827359988536 1.050180627239116 0  -2.257795730428802 1.049701225145305 0  -0.62222340523776 -0.5483611729237363 0  2.065188519029698 0.5424877383589943 0  0.1055865106318892 0.7347782870471022 0  1.013082573993895 -0.2061877611231605 0  -5.428323520618333 -0.4386412085227075 0  5.374041502384443 -0.5304401760993408 0  3.435185060219232 -1.377658617395091 0  -3.302377238490527 0.8841390072780534 0  -0.9902123298072768 -0.124175295282554 0  0.7186958547669859 0.8724503317343631 0  2.941237214953417 1.390391532351976 0  4.708037787864423 -1.340276032051348 0  5.395029680982659 1.395029680983341 0  3.591022587550188 1.348260650408605 0  2.759385971589342 0.4857447325740718 0  -0.6832705231418494 0.8879387563573758 0  5.437781298507145 0.5981501503262471 0  -2.698603003287285 1.617130043745112 0  -3.463358189947519 -1.013588318179017 0  1.710866040171871 -0.6978716337870808 0  3.642182982762737 0.4555704362064124 0  -2.699802128031161 -1.618310703146212 0  -1.3020054856637 1.619819977935582 0  -2.000000000004996 -1.566396763829867 0  -1.999999999994794 1.566396763830688 0  -1.247812462071684 -1.595232739507426 0  4.59429106759859 1.420052135572917 0  0.9448382581152466 -1.440259145469251 0  -0.116376100998861 -0.2606209011258676 0  -4.774521510507792 0.4245390872783272 0  -2.983910172370106 -0.1208000607277856 0  -3.353983741142061 1.576062863985777 0  -5.473352579109997 0.4917619255280954 0  -4.828650470275986 -1.493148538517745 0  4.639973657165532 -0.2833178611094909 0  -2.660279445404468 0.7699932347178977 0  -1.335045190775955 0.7744876666923373 0  -3.395669172689978 0.2584951122361346 0  2.279110606119369 -1.465899541383697 0  4.734317729212562 0.4520963557364723 0  -0.6334913028224612 1.584213953723378 0  2.121854101359879 -0.4289611127787379 0  -3.474459720833238 -0.4977581316675216 0  -1.066539898844178 0.3411379476537602 0  -3.361849707555382 -1.611428512420182 0  -4.099039818938317 0.3306400369415774 0  -2.935324777364672 0.354721898811665 0  -3.973578595052027 1.482940358734671 0  3.784450148635689 -0.0702780807301525 0  -1.191348122671212 -0.5614501189722798 0  -2.838672605956353 -0.5493179047027598 0  -1.184983441257359 0.5617520886612424 0  -2.811184099847449 0.5574240755049175 0  0.2702752249355158 -0.8003643570420809 0  -0.6945947797857237 -1.593893965175195 0  0.001175881878679056 1.504521009023778 0  0.6072931735145096 1.501814722697789 0  -3.991896293645949 -1.047264188412552 0  -3.734097395159253 -0.3261671578666079 0  -5.539652387691843 -0.8857154182585802 0  -4.395061924111849 1.563293728588296 0  0.2258327611651416 -0.08745142624872881 0  -3.774816634825771 0.8676973328379478 0  2.208484493569073 1.6256686312487 0  0.1309939514660535 -1.566169703482512 0  -5.551414360955331 0.9459842275970113 0  -4.04734138658365 -1.51163984963472 0  -4.947145019546805 -0.3299925153029702 0  4.320410447198621 0.6970857582435144 0  -4.707557346727139 -1.000565649857444 0  1.353711468973986 1.582551234446199 0  1.674156483558973 0.3266252271732694 0  -4.039105552973997 -0.4537604746027087 0  0.01051727619263377 -1.088858357362194 0  -0.2234942609176301 0.8619127912343982 0  -2.95903482691863 0.1219373374385197 0  -4.682467695920681 0.0804575682243254 0  5.535750224195656 -0.1525732643419722 0  -4.290083947414376 -0.0005258314026840717 0  1.136102562417988 0.7655312464039168 0  -2.816589394567214 0.9927597419785312 0  -2.645374456162409 -0.7645902451387543 0  4.18414576655837 1.624276131878667 0  0.7127337088822223 -0.9006358935856398 0  1.972418102153911 0.9727040774616764 0  -2.42199174813501 0.8591219219254587 0  -2.418604734200992 -0.8552987735117754 0  -5.573597213364169 -0.03612430678117123 0  2.024792870869397 0.05574071630590883 0  -1.578875191508968 0.861424470724936 0  -1.54706008231699 -0.8630049102346303 0  3.848662181064435 -1.569601980075533 0  -2.000000000003871 -0.9746445732264465 0  -1.99999999
[...]
<PointData  Scalars="f_24"> 
<DataArray  type="Float64"  Name="f_24"  format="ascii">8.6627796385642697e-01  8.6627796385642697e-01  0.0000000000000000e+00  0.0000000000000000e+00  3.2822296950469948e-01  6.3834786232840335e-01  8.1097155793066111e-01  7.5735928701310762e-01  7.0213619494317547e-01  6.4767689429228947e-01  5.9375798974295346e-01  5.4379740423536771e-01  5.0618785138960409e-01  5.2374350779116385e-01  5.8294826870728655e-01  6.3180600604522730e-01  6.4008807417462832e-01  6.1968349749912499e-01  5.8086795870026420e-01  5.3480486743858324e-01  4.8541359343296964e-01  4.3385808723363867e-01  3.7986050773753527e-01  3.2728273334759023e-01  2.7308702231058501e-01  2.1851627778762869e-01  1.6392752686475565e-01  1.0934405631795828e-01  5.5286119038476356e-02  0.0000000000000000e+00  0.0000000000000000e+00  0.0000000000000000e+00  0.0000000000000000e+00  0.0000000000000000e+00  0.0000000000000000e+00  0.0000000000000000e+00  5.5234762013880598e-02  1.0955793137072069e-01  1.6407103844516319e-01  2.1902092399561057e-01  2.7293782352374163e-01  3.2697793649353429e-01  3.8060581768779256e-01  4.3379215490772061e-01  4.8486198900297212e-01  5.3481143324535119e-01  5.8080703009038426e-01  6.1891847569827529e-01  6.4096473797491882e-01  6.3114191561172128e-01  5.8368208961140278e-01  5.2363215894375059e-01  5.0616550439089725e-01  5.4385440166846499e-01  5.9363558716698372e-01  6.4766804360839514e-01  7.0282551420458694e-01  7.5663243069137409e-01  8.1116244068178844e-01  8.6627796385642697e-01  8.6627796385642697e-01  8.6627796385642697e-01  8.6627796385642697e-01  8.6627796385642697e-01  8.6627796385642697e-01  8.6627796385642697e-01  3.2869540319395202e-01  3.2896421611153442e-01  3.5158447949637428e-01  4.0222274276400233e-01  4.6919979639246301e-01  5.4877545241027181e-01  6.2011407360493143e-01  6.6845267180420398e-01  6.8208969518810270e-01  6.7254847135797280e-01  6.5507255004909193e-01  6.4261323238884294e-01  6.4243923616073995e-01  6.5498751405650557e-01  6.7233985082228653e-01  6.8311282983511512e-01  6.6907265732182863e-01  6.1998603817439613e-01  5.4881922060270583e-01  4.6963046010619813e-01  4.0152532413119668e-01  3.5213070326236323e-01  3.3102536506235297e-01  3.2700852563137706e-01  5.6573726657719114e-01  6.8654403457133473e-01  6.1614655680227703e-01  6.0677345517854608e-01  3.8166444149853940e-01  5.7818609778136720e-01  1.9549061798081102e-01  6.1911951762583217e-01  5.5277890120524020e-01  6.1955417873051877e-01  5.1917422420990900e-01  7.4745050667187574e-01  5.5258768961176608e-01  6.1731973459615208e-01  5.3757759632891133e-01  6.2146779402623309e-01  4.6875727312977694e-01  2.7307317718489149e-01  1.2922161552626646e-01  2.9941671473827380e-01  6.7461557816182538e-01  5.1585754219133784e-01  5.5667603187452097e-01  5.5603524877630406e-01  5.1591004607931845e-01  7.7113437148007935e-01  4.2207070849976319e-01  1.1359095387650649e-01  5.8388365481382221e-01  7.7197966508409688e-01  5.1157051276304621e-01  4.8637845294700710e-01  6.3169712084978968e-01  6.3261926260473578e-01  6.8815691151777192e-01  4.6832078123474480e-01  3.8936916124891197e-01  9.7881814397771438e-02  2.0919331706737651e-01  6.2894606976844769e-01  5.7720517064247356e-01  6.1926235105508864e-01  6.1377756537546513e-01  5.6619711758026303e-01  2.9097842734163692e-01  4.9283612041094671e-01  5.9766888399680307e-01  5.1828965539147454e-01  5.9603059512484158e-01  5.1838062659252937e-01  4.9238529297671335e-01  2.0397702389451047e-01  6.2012871256923097e-01  6.2012114692129550e-01  5.9957694357372304e-01  3.4439363685416857e-01  4.8612366370161214e-01  5.2883704789572505e-01  7.9211468015321096e-01  6.3001776904691276e-01  7.0305970422523223e-01  4.6532524200470626e-01  6.3302189359532257e-01  2.0514820635439840e-01  7.4767723021992027e-02  6.3533365259738184e-01  6.4509688286348787e-01  4.8858663481647369e-01  5.7452415540222446e-01  4.8492273540427749e-01  5.1660618261862612e-01  6.2102212837114323e-01  7.3649558222393563e-01  4.4961434710248971e-01  7.1079241850559483e-01  3.4346684708090314e-01  6.7577250116386467e-01  6.2328145318337358e-01  4.5035493408098914e-01  6.3363806587454041e-01  8.0352018254746749e-01  4.9108507391229395e-01  5.6700698890302170e-01  5.6751357398894142e-01  4.9110003863344853e-01  6.2486167697551465e-01  4.2189732367611621e-01  5.9411325772975432e-01  5.2062288480472907e-01  8.0314379656755108e-01  6.8353256456731598e-02  2.7936418516254236e-01  5.6064918350937032e-01  6.3568381214256531e-01  5.5055742809395602e-01  3.3239570473593910e-01  1.4119587524891594e-01  6.6242802930298647e-02  2.6255979613735730e-01  3.5010213926502520e-01  6.2547540039583893e-01  6.1423600693264455e-02  5.3780480456828317e-01  5.8889983399747081e-01  4.5799398587704832e-01  2.5621940373102448e-01  5.3781700846166491e-01  5.9388196593846387e-01  5.3024919892473554e-01  5.3029190880932797e-01  5.9926272594865959e-01  1.5363434940777573e-01  5.3540615940138914e-01  6.0215400496743632e-01  7.2898110630435997e-01  4.0513282409711360e-01  5.8900189526168334e-01  8.0804841095152768e-01  7.3904456764904369e-01  1.4825689471045347e-01  4.4142987255188026e-01  6.4128629353681410e-01  5.3106578103969160e-01  4.0259465778884712e-01  1.3806570566762399e-01  6.2661137405064682e-01  4.1581384625371975e-01  5.5847782039269800e-01  6.4079224766456588e-01  5.8886429842790755e-01  6.4552163014972175e-01  4.1174904058061862e-01  6.4904424686543516e-01  2.4075649430113283e-01  6.4784278905284232e-01  4.2067816732829477e-01  6.4796329571011602e-01  4.1329926026327679e-01  5.8442174109775347e-01  6.2753539881484088e-01  6.0789202977527046e-01  5.6489291734457858e-01  6.4768777081024520e-01  5.9325825669977195e-01  8.1585777405329885e-01  6.9264540011690567e-01  5.8134170938493634e-01  6.1856942223663602e-01  4.1036441848360422e-01  6.0146240612085589e-01  8.1713413321692951e-01  6.5647822968313219e-01  7.4847024109623939e-01  1.8313417732548198e-01  7.2505602182537154e-01  4.9726504587289866e-01  4.6006589938240855e-01  6.3985042523344871e-01  6.0384836040316048e-01  6.1326227128432431e-01  3.9491180552442917e-01  7.1708666691479672e-01  5.0657282467583130e-02  6.6846001283879064e-01  5.1303744602920209e-01  5.1049069609239695e-01  4.3795307444618453e-01  1.9853293336157329e-01  5.5145818943496983e-01  4.3291949333404262e-01  4.5254182308505636e-01  4.5268055989660572e-01  8.1921637370996336e-01  4.2500505243788711e-01  6.3142258310438426e-01  6.3138408811342317e-01  2.3475274545485969e-01  5.3815009614293230e-01  5.3820903139448928e-01  5.3320435207221106e-01  2.5593816065937697e-01  6.1566252965855217e-01  5.4834062320731436e-01  4.3128675287991025e-02  4.5465312590860348e-02  3.4371120178601333e-01  5.9725151292909340e-01  6.1670638865056848e-01  3.7549450628269937e-01  1.7738486100201792e-01  1.9087218202035708e-01  4.5699947166994032e-01  5.8964532991520036e-01  5.0841044508837929e-01  3.3702368788356557e-01  5.3365395680479066e-01  5.1524953803280082e-01  2.2762489485369836e-01  2.9606155744355667e-01  1.0950460169453873e-01  6.1230704701783301e-01  6.0378043711824370e-01  6.2814555996317978e-01  5.9440542942679231e-01  3.5341463843653403e-01  5.4454612256220813e-01  5.6825534952198642e-01  6.0374707664389471e-01  8.2181505902308460e-01  3.0747162903438124e-01  6.2928571855477700e-01  7.3751331655899155e-01  5.8307727646606122e-01  6.2438607865474482e-01  6.9831041314734621e-01  3.1893353194504304e-01  6.2934410078162029e-01  5.0440238542239813e-01  5.2343416029932455e-01  5.5725220643051254e-01  5.5780457060435407e-01  5.2345880156221558e-01  4.8596957180145850e-01  5.8289006580912406e-01  3.0042304401311454e-01  6.2448441603369276e-01  4.3330419136178966e-02  7.6755862442460776e-01  4.5277571173882980e-01  6.2171545868311895e-01  5.5810985250404610e-01  4.9457314888454101e-01  1.5702743834564109e-01  5.3534776490007996e-01  5.3864472600314994e-01  7.7442576432998711e-01  7.1153242504459757e-01  7.8081553590387098e-01  5.2571601237639143e-01  4.8223376599768825e-01  5.8618691520815591e-01  2.4832978480470583e-01  6.2372058886274828e-01  4.8887783988917932e-01  6.8161243713013575e-01  6.1603468693837249e-01  6.3790377691774802e-01  4.6131091339167818e-02  1.0332685542330103e-01  6.4384482224058925e-01  6.2396065560794278e-01  1.0623962553156850e-01  3.1421901689124587e-01  7.6805235782602244e-01  3.6467625595835756e-01  5.4348426952973061e-01  5.7712826474121737e-01  6.4566602590571165e-01  8.3294883127518760e-01  6.2572699172988566e-01  6.7773685747239876e-01  9.0361284991748059e-02  1.5393865368106188e-01  3.8091772498597964e-01  6.2393841479132739e-01  5.7033450651805229e-01  5.3645936375859660e-01  8.2721783825216089e-01  2.4034902091963162e-01  1.8799313644199675e-01  6.1802150975338144e-01  5.1262099553337026e-01  7.6642965484465519e-01  3.7231775723204893e-02  6.2796737873761277e-01  3.7316905367247216e-01  3.8402077779704852e-01  6.1381164819753931e-01  4.9887336258407322e-01  4.6307844387263353e-01  5.1765870240492118e-01  6.0602718016379120e-01  8.3758928943841560e-01  6.3615553255934132e-01  5.6238211932135462e-01  6.1690190214840912e-01  6.7069234885960383e-01  4.4675962661810636e-01  2.4436034106254154e-01  6.1590028971459609e-01  3.1877727537100296e-02  8.3778474316224261e-01  7.7836603699887441e-01  4.5840847391758838e-01  5.7173131421209078e-01  5.8818235429288956e-01  7.3168473609556595e-01  5.9099551336049172e-01  5.3931915341100267e-01  6.1787643614867638e-01  7.0644427925837550e-01  2.2176037257201686e-01  3.8976145374633708e-01  9.9799056789092372e-02  6.5993641580330520e-01  5.6229528099658976e-01  6.1799465701970002e-01  6.1612526397204104e-01  7.4176497205582892e-01  2.9954253536329828e-01  4.9602571903457543e-01  4.9626526031413998e-01  6.0946949146310536e-01  6.1017144683070179e-01  4.8979225195113535e-01  4.4859458691383713e-01  </DataArray> 
</PointData> 
</Piece>
</UnstructuredGrid>
</VTKFile>