<?xml version="1.0"?>
<VTKFile type="UnstructuredGrid"  version="0.1"  >
<UnstructuredGrid>
<Piece  NumberOfPoints="406" NumberOfCells="722">
<Points>
<DataArray  type="Float64"  NumberOfComponents="3"  format="ascii">-6 -2 0  -6 2 0  6 2 0  6 -2 0  -2.8 0 0  -1.2 0 0  -5.500000000001853 -2 0  -5.000000000003705 -2 0  -4.500000000005556 -2 0  -4.000000000007409 -2 0  -3.50000000000926 -2 0  -3.000000000011112 -2 0  -2.500000000012963 -2 0  -2.000000000014814 -2 0  -1.500000000016665 -2 0  -1.000000000018516 -2 0  -0.5000000000203677 -2 0  -2.204547655537681e-11 -2 0  0.4999999999796305 -2 0  0.9999999999814779 -2 0  1.499999999983327 -2 0  1.999999999985175 -2 0  2.499999999987029 -2 0  2.999999999988882 -2 0  3.499999999990735 -2 0  3.999999999992589 -2 0  4.49999999999444 -2 0  4.999999999996293 -2 0  5.499999999998147 -2 0  6 -1.500000000001387 0  6 -1.000000000002774 0  6 -0.5000000000041616 0  6 -5.505595979116151e-12 0  6 0.4999999999958384 0  6 0.9999999999972258 0  6 1.499999999998613 0  5.500000000001853 2 0  5.000000000003705 2 0  4.500000000005556 2 0  4.000000000007409 2 0  3.50000000000926 2 0  3.000000000011112 2 0  2.500000000012963 2 0  2.000000000014814 2 0  1.500000000016665 2 0  1.000000000018516 2 0  0.5000000000203677 2 0  2.204547655537681e-11 2 0  -0.4999999999796305 2 0  -0.9999999999814779 2 0  -1.499999999983327 2 0  -1.999999999985175 2 0  -2.499999999987029 2 0  -2.999999999988882 2 0  -3.499999999990735 2 0  -3.999999999992589 2 0  -4.49999999999444 2 0  -4.999999999996293 2 0  -5.499999999998147 2 0  -6 1.500000000001387 0  -6 1.000000000002774 0  -6 0.5000000000041616 0  -6 5.505595979116151e-12 0  -6 -0.4999999999958384 0  -6 -0.9999999999972258 0  -6 -1.499999999998613 0  -2.776753453941174 -0.1914525314286965 0  -2.708364820523325 -0.3717785376335722 0  -2.598808598538216 -0.5304981265911284 0  -2.454451797386757 -0.65838709271366 0  -2.283683909636528 -0.748012994147384 0  -2.096429344207466 -0.7941670992780535 0  -1.903570655798842 -0.7941670992788195 0  -1.716316090368095 -0.7480129941491368 0  -1.545548202616307 -0.6583870927157747 0  -1.401191401463757 -0.530498126593356 0  -1.291635179477527 -0.371778537635196 0  -1.223246546059047 -0.1914525314295925 0  -1.223246546058803 0.1914525314286035 0  -1.291635179476594 0.3717785376334188 0  -1.401191401461634 0.5304981265909601 0  -1.545548202612898 0.6583870927134221 0  -1.716316090363093 0.7480129941472402 0  -1.903570655792394 0.7941670992780367 0  -2.096429344201276 0.7941670992788055 0  -2.283683909631911 0.7480129941491347 0  -2.454451797383697 0.6583870927157729 0  -2.598808598536385 0.530498126593196 0  -2.70836482052258 0.3717785376349917 0  -2.776753453940975 0.1914525314295042 0  0.4588466633941945 0.2704149791022056 0  -4.424312812173863 0.2760319703992994 0  -3.803977598762586 -0.6841584599595646 0  -0.1330968762779425 -0.6798763971615133 0  2.451109587541276 3.169800318630399e-13 0  -3.563610936250569 0.5929994091167295 0  4.204753319582647 0.2820669554523581 0  -0.4390897559348154 0.6178095532273566 0  -3.041446812595122 1.175550440315544 0  -0.9622132806516797 1.132103015222783 0  1.069493318942931 -0.773608156980569 0  -4.924330687080279 -0.7127064269610045 0  -3.024693497948964 -1.195179289656404 0  -0.9648749555625579 -1.256854520022574 0  -3.443624282349383 -0.2044158249759613 0  -0.5611500783757608 -0.1747080110423833 0  1.60270880116926 0.7487034276124258 0  3.488352576142236 -0.8228939860777884 0  4.816375011670135 -0.8163750116689444 0  3.243628045085357 0.8578172796997985 0  -4.228632884234073 1.228069101636678 0  -2.365220384435482 -1.356128547810356 0  -1.637465979486354 1.3571687267915 0  -1.642380978561139 -1.359365080147485 0  -2.362988915989869 1.356737096243695 0  -5.134120367293631 0.8356299802910161 0  2.077496878467794 -0.9514080034522553 0  4.960859291178299 0.9608592911785537 0  0.3293120056474302 1.148965409695154 0  -5.157560560414062 0.09447106214747865 0  -3.14779387667392 -0.6330563038825547 0  -3.148134455585257 0.4354299640428653 0  -0.8464439673630421 0.4159277415926296 0  -0.9918125625721008 -0.7191748422889824 0  -4.355349213295776 -1.234510499778242 0  1.582074659164868 -0.06850205959954866 0  2.400584045214166 1.204278622181321 0  5.102831660739063 0.03453404176596848 0  4.083259768981113 1.154272958349666 0  -3.992394834362243 -0.1621022234411988 0  0.4290302718942113 -1.225465289645401 0  -3.681487986394671 -1.310544246656267 0  -3.640289698916164 1.187023654838123 0  0.468851680921228 -0.447055967952278 0  3.315209904217932 0.05667935655546536 0  -2.541160649745046 -1.046980928586996 0  -1.45196684542695 1.044189935346116 0  -2.000844595891861 -1.207983108473125 0  -1.453092202970521 -1.061139264918894 0  -2.000050543938391 1.207806685704176 0  -2.548033154566413 1.04418993534851 0  4.13054585796652 -1.232871249381608 0  -0.3301617095463629 1.221692405319566 0  -0.2880491989587189 -1.359626628407983 0  -0.0758941643813178 0.132275811829787 0  2.826389221580753 -1.233168480096227 0  -2.922070412327736 0.7575752117792038 0  1.003070890178416 1.271347915034201 0  -5.319521816151902 -1.310543894393663 0  -1.070407062963812 0.7877698545098388 0  -4.562499863038985 -0.2302396981426722 0  -3.164226661545047 0.07179577787350272 0  -0.9091377812900333 0.132454654016971 0  4.116029045943655 -0.4851826871817362 0  5.316659189209927 -1.316659189208741 0  -0.9498828454673396 -0.4149758979014553 0  -4.037769805263969 0.6896174350675625 0  1.431664772855882 -1.327784137638992 0  -3.646693623568034 0.1600006358878044 0  -2.878371345483476 -0.7910345833001061 0  1.062603041385242 0.2894765870627741 0  -0.547955103783681 0.1635272504420374 0  -4.804809838419659 1.41016301576038 0  -3.042895319571192 -0.3694931303482478 0  -4.59252578392403 0.792267765362792 0  2.823271260730033 -0.5472430318427347 0  -4.28575390662405 -0.7521491832384866 0  -0.5524005545121191 -0.9037367558558163 0  1.815219025072439 1.388812135783969 0  -1.288398729718543 -0.8178399475601057 0  -5.424388493366639 1.35375165044146 0  -2.256991952837567 -1.049538527273222 0  -1.739586738723494 -1.052327527873255 0  -1.738827359988536 1.050180627239116 0  -2.257795730428802 1.049701225145305 0  -0.62222340523776 -0.5483611729237363 0  2.065188519029698 0.5424877383589943 0  0.1055865106318892 0.7347782870471022 0  1.013082573993895 -0.2061877611231605 0  -5.428323520618333 -0.4386412085227075 0  5.374041502384443 -0.5304401760993408 0  3.435185060219232 -1.377658617395091 0  -3.302377238490527 0.8841390072780534 0  -0.9902123298072768 -0.124175295282554 0  0.7186958547669859 0.8724503317343631 0  2.941237214953417 1.390391532351976 0  4.708037787864423 -1.340276032051348 0  5.395029680982659 1.395029680983341 0  3.591022587550188 1.348260650408605 0  2.759385971589342 0.4857447325740718 0  -0.6832705231418494 0.8879387563573758 0  5.437781298507145 0.5981501503262471 0  -2.698603003287285 1.617130043745112 0  -3.463358189947519 -1.013588318179017 0  1.710866040171871 -0.6978716337870808 0  3.642182982762737 0.4555704362064124 0  -2.699802128031161 -1.618310703146212 0  -1.3020054856637 1.619819977935582 0  -2.000000000004996 -1.566396763829867 0  -1.999999999994794 1.566396763830688 0  -1.247812462071684 -1.595232739507426 0  4.59429106759859 1.420052135572917 0  0.9448382581152466 -1.440259145469251 0  -0.116376100998861 -0.2606209011258676 0  -4.774521510507792 0.4245390872783272 0  -2.983910172370106 -0.1208000607277856 0  -3.353983741142061 1.576062863985777 0  -5.473352579109997 0.4917619255280954 0  -4.828650470275986 -1.493148538517745 0  4.639973657165532 -0.2833178611094909 0  -2.660279445404468 0.7699932347178977 0  -1.335045190775955 0.7744876666923373 0  -3.395669172689978 0.2584951122361346 0  2.279110606119369 -1.465899541383697 0  4.734317729212562 0.4520963557364723 0  -0.6334913028224612 1.584213953723378 0  2.121854101359879 -0.4289611127787379 0  -3.474459720833238 -0.4977581316675216 0  -1.066539898844178 0.3411379476537602 0  -3.361849707555382 -1.611428512420182 0  -4.099039818938317 0.3306400369415774 0  -2.935324777364672 0.354721898811665 0  -3.973578595052027 1.482940358734671 0  3.784450148635689 -0.0702780807301525 0  -1.191348122671212 -0.5614501189722798 0  -2.838672605956353 -0.5493179047027598 0  -1.184983441257359 0.5617520886612424 0  -2.811184099847449 0.5574240755049175 0  0.2702752249355158 -0.8003643570420809 0  -0.6945947797857237 -1.593893965175195 0  0.001175881878679056 1.504521009023778 0  0.6072931735145096 1.501814722697789 0  -3.991896293645949 -1.047264188412552 0  -3.734097395159253 -0.3261671578666079 0  -5.539652387691843 -0.8857154182585802 0  -4.395061924111849 1.563293728588296 0  0.2258327611651416 -0.08745142624872881 0  -3.774816634825771 0.8676973328379478 0  2.208484493569073 1.6256686312487 0  0.1309939514660535 -1.566169703482512 0  -5.551414360955331 0.9459842275970113 0  -4.04734138658365 -1.51163984963472 0  -4.947145019546805 -0.3299925153029702 0  4.320410447198621 0.6970857582435144 0  -4.707557346727139 -1.000565649857444 0  1.353711468973986 1.582551234446199 0  1.674156483558973 0.3266252271732694 0  -4.039105552973997 -0.4537604746027087 0  0.01051727619263377 -1.088858357362194 0  -0.2234942609176301 0.8619127912343982 0  -2.95903482691863 0.1219373374385197 0  -4.682467695920681 0.0804575682243254 0  5.535750224195656 -0.1525732643419722 0  -4.290083947414376 -0.0005258314026840717 0  1.136102562417988 0.7655312464039168 0  -2.816589394567214 0.9927597419785312 0  -2.645374456162409 -0.7645902451387543 0  4.18414576655837 1.624276131878667 0  0.7127337088822223 -0.9006358935856398 0  1.972418102153911 0.9727040774616764 0  -2.42199174813501 0.8591219219254587 0  -2.418604734200992 -0.8552987735117754 0  -5.573597213364169 -0.03612430678117123 0  2.024792870869397 0.05574071630590883 0  -1.578875191508968 0.861424470724936 0  -1.54706008231699 -0.8630049102346303 0  3.848662181064435 -1.569601980075533 0  -2.000000000003871 -0.9746445732264465 0  -1.99999999
[...]
<PointData  Scalars="f_24"> 
<DataArray  type="Float64"  Name="f_24"  format="ascii">-4.2184807396264695e-01  -4.2184807396264695e-01  0.0000000000000000e+00  0.0000000000000000e+00  -7.1849781672324120e-01  2.2083718373534466e-02  -4.2956888283011069e-01  -4.3641532468546451e-01  -4.4273421001449048e-01  -4.4734621285902637e-01  -4.4846414682152091e-01  -4.3683483626815706e-01  -4.0344462657055624e-01  -3.0574694257602958e-01  -1.6733921103825677e-01  -4.8126222518784192e-02  1.9932968001758092e-02  5.1825525089579119e-02  6.3079217585348013e-02  6.5216157642858125e-02  6.3192397776956316e-02  5.8246192771679917e-02  5.2271827805697432e-02  4.5520452780843462e-02  3.8559589845779008e-02  3.1002270057848329e-02  2.3432846944157325e-02  1.5826173754186258e-02  7.9100706242740144e-03  0.0000000000000000e+00  0.0000000000000000e+00  0.0000000000000000e+00  0.0000000000000000e+00  0.0000000000000000e+00  0.0000000000000000e+00  0.0000000000000000e+00  7.9094615233006073e-03  1.5793472178534600e-02  2.3619243410972747e-02  3.1048493763166735e-02  3.8514759701978284e-02  4.5611199298219718e-02  5.2338177976688993e-02  5.8354194172562220e-02  6.2796266530836392e-02  6.5268159448143098e-02  6.3113625952889635e-02  5.1169435636147537e-02  2.0990688708455989e-02  -4.9184404204246274e-02  -1.6628732831470341e-01  -3.0590194283552880e-01  -4.0349221045571670e-01  -4.3663979070217135e-01  -4.4858193622029985e-01  -4.4721401048432624e-01  -4.4280533183822890e-01  -4.3657616652840231e-01  -4.2954921092267911e-01  -4.2184807396264695e-01  -4.2184807396264695e-01  -4.2184807396264695e-01  -4.2184807396264695e-01  -4.2184807396264695e-01  -4.2184807396264695e-01  -4.2184807396264695e-01  -7.1249594521790105e-01  -6.9575292242353992e-01  -6.4543666971331537e-01  -5.5686116292854504e-01  -4.4449079019338333e-01  -3.1322512576262956e-01  -1.8775594671601006e-01  -8.5636882792317778e-02  -2.4240446064800001e-02  5.9109302520019245e-03  1.6416090259904904e-02  2.0886809567275663e-02  2.0799437219425822e-02  1.6460838036919372e-02  5.0438355359091296e-03  -2.3414678536703027e-02  -8.5127388390432324e-02  -1.8792614208978148e-01  -3.1320115639251650e-01  -4.4401228459174397e-01  -5.5755316555503787e-01  -6.4467539743214142e-01  -6.9345579189992290e-01  -7.1412773824346354e-01  4.9439564115006163e-02  -4.5651712618037704e-01  -4.6927901185203391e-01  3.6782229083396803e-02  4.9115603582857104e-02  -4.8811962623290039e-01  2.7142087009530063e-02  2.5345856957405835e-02  -4.4504019749288098e-01  -4.0141723149573330e-02  5.7570967833376493e-02  -4.4025955417455997e-01  -4.4254094635094615e-01  -4.7073165221691235e-02  -5.2623217082000384e-01  2.5772661456597745e-02  5.6889864751648936e-02  3.7563936272409573e-02  1.8209836343096458e-02  4.0965347344510669e-02  -4.4550301452090357e-01  -3.7980525528623776e-01  -2.1015641341713515e-01  -2.1158690145047096e-01  -3.7937768706397673e-01  -4.3594851592159622e-01  5.4417578637862674e-02  1.6101546628636290e-02  5.1572470331148978e-02  -4.3797872068131072e-01  -5.1938090518115410e-01  -5.5324901676595650e-01  1.2838990384027010e-02  -1.1173749278004848e-02  -4.4409076956009635e-01  5.4811592051156946e-02  5.1880127058457723e-02  1.3739124957614646e-02  2.9404450613197519e-02  -4.7697463117352801e-01  5.4036119329051849e-02  -4.4582189231638503e-01  -4.4856129122239613e-01  5.0214030863658221e-02  3.9277138837259272e-02  -4.4289692886886128e-01  -1.2727607563377916e-01  -3.1408869630875569e-01  -1.2970934414143254e-01  -3.1386929069852598e-01  -4.4474880827597402e-01  2.8698433943997778e-02  2.4056738216867945e-02  2.6583444775155542e-02  3.8669433650574250e-02  4.6861111044124562e-02  -5.1808034353067522e-01  6.0129330965508210e-02  -4.3185631197317775e-01  -2.6121458268381675e-02  -4.5247901524987377e-01  -5.8445671284238576e-01  1.9533653508985359e-02  2.8484233279879704e-02  1.0591546493153348e-02  1.0316670978862685e-02  -4.6131719474763305e-01  6.0232661470194654e-02  -5.0404917365462132e-01  -5.1267586653168218e-01  5.4989257168314959e-02  2.6126049676479753e-02  -4.3849456371677609e-01  -5.8709064697506219e-01  -4.4591618798357996e-01  4.5684794989351150e-02  -4.5271511065641595e-01  1.3188156760573992e-02  5.7986973910005735e-02  -5.0699374857916889e-02  -4.3032213841165307e-01  -3.9539629485374689e-01  -2.1161474026731464e-01  -2.1089289141264952e-01  -3.9553245087326216e-01  1.8599202879796866e-02  5.3246529757723524e-02  4.4175040751582274e-02  5.4539173247376019e-02  -4.3172617293468468e-01  9.6343999448730167e-03  3.8867124459373778e-02  -4.7500750713114337e-01  1.9352042583442218e-02  5.5979613060422206e-02  4.5574779286930968e-02  2.0050513002448932e-02  9.4736126421038937e-03  3.6638089581350758e-02  4.6344374990752488e-02  3.9189846015572939e-03  8.7073961041750723e-03  -4.0385832252933773e-01  -4.5880642504627495e-01  5.6236879655053959e-02  3.5138220862940911e-02  -4.0398147622369973e-01  -1.2509834657600447e-01  -3.0085261314436568e-01  -3.0083028939020656e-01  -1.1106637107712646e-01  2.1868107082122067e-02  6.0909850458369441e-02  3.7651851673573843e-02  -4.4549978488362335e-01  -6.3902665526530578e-01  -4.3707431351016562e-01  -4.3099742428057236e-01  -4.3796797549672256e-01  2.0716970635836503e-02  -5.3328134518787484e-01  -4.6263413639158396e-02  -5.2850649803533667e-01  5.3747700751178844e-02  1.9365945420261911e-02  -6.5563634167627206e-03  5.2494385270653143e-02  -5.0254506737328164e-01  1.3566402625342535e-02  -4.3789474408595908e-01  -4.6884093113147696e-01  -6.2091204133396216e-01  -4.4425187745931755e-01  3.3016491381726965e-02  -3.6542293935595757e-03  -5.9219318017287503e-01  -3.1734293014170599e-03  -5.9703566573509248e-01  4.8640292083496954e-02  -1.2520748186768835e-02  4.1748711207615634e-02  5.8039746506480333e-02  -4.5098217029283805e-01  -4.9071677299962685e-01  -4.2912770169746722e-01  -4.4234773906760283e-01  4.5211650165019379e-02  -4.6181531872660675e-01  5.4807615672426493e-02  4.7890073741583383e-02  -4.2892863603449216e-01  -4.4415295189970561e-01  -4.4196422851198525e-01  2.5633653046064624e-02  -4.4163733682422207e-01  6.1292901848668452e-02  5.5038141462729638e-02  -4.6855665493470883e-01  4.1792636925815987e-02  3.3181958713020349e-02  -6.4901714918926567e-01  -4.4940154626972717e-01  7.1194356971545402e-03  -4.6313249772194859e-01  5.7610068599094510e-02  -4.6742078943192295e-01  -5.3522539272213288e-01  2.8208259878008332e-02  5.6112582612841494e-02  5.5431796487728585e-02  -4.7846740808328014e-01  -4.7797657262058513e-01  -4.2926641787693987e-01  5.2669999042107625e-02  -1.0441544861751070e-01  -9.8442484279715678e-02  3.2953857424450304e-02  -2.9657937574239590e-01  -2.9655044458756519e-01  -4.2323270308632244e-01  3.5464552861702123e-02  -7.0689978876882720e-02  5.1824647009444294e-02  6.1957566279724659e-03  6.4462298432572621e-03  4.6411963724674751e-02  -1.0866361904377476e-01  -6.2094176910872587e-02  4.9794810595943484e-02  2.4853129005615666e-02  2.6964740361088861e-02  5.9178921853357949e-02  4.4220590136074947e-02  -5.4108797592175328e-01  4.4561744967866537e-02  -4.2272926259243410e-01  -5.1329263005150594e-01  3.1655839290305111e-02  4.0066434460872560e-02  1.5637241505139229e-02  3.2002837210167195e-02  3.7530996346035517e-02  2.1963852134183552e-02  -1.1606336624956781e-01  4.8306542874368072e-02  -4.7171196099697882e-01  5.9508487419879325e-02  -4.8293530187135703e-01  -4.2798426565810166e-01  4.1411030513817226e-02  1.8995832060769598e-02  -4.3980728828278309e-01  -4.4832904026275439e-01  1.3706883331926593e-03  -4.4204287279957027e-01  4.3322972544351634e-02  6.7957761168869445e-03  6.1899845894158888e-02  -3.5794274328534503e-01  -2.2257418069640636e-01  -2.2084241124003806e-01  -3.5787499924641863e-01  5.9270537215612269e-02  -4.4337068211762803e-01  4.1808992614708010e-02  -7.7049404214311126e-03  6.2205960064400413e-03  -4.3578119681808236e-01  -5.9041840717808358e-01  -4.4424321872882555e-01  5.7060323903773066e-02  5.6256113211435824e-02  2.2196928439709177e-02  -5.1354636094100492e-01  5.4444951839587842e-02  -4.3395377018598674e-01  -4.4803467435775235e-01  -4.3314177200994791e-01  -5.3684105638051538e-01  -5.6923828860346204e-01  4.4235042610211897e-02  3.4132647128274941e-02  2.1001716444300621e-02  5.8443657476114977e-02  -4.5455480660545466e-01  2.8703652611843621e-02  2.0361507830779443e-02  6.4931959814359865e-03  1.4713249969722935e-02  1.4995822507587955e-02  2.5814151640907630e-02  1.4909854475241289e-02  4.3528381429576074e-02  -4.3512092067851205e-01  4.9787674856729788e-02  5.3695263055870288e-02  -5.0319656809053925e-01  -4.5067969173177658e-01  -4.2650066826358013e-01  -1.1487283651984821e-02  -4.4979698242621768e-01  1.2798603793482424e-02  2.1480539170001429e-02  -6.5170483243389188e-01  3.1044534711926822e-02  5.0634313816389109e-02  6.1764950576684088e-02  -4.2728891219425907e-01  3.3855001603067578e-02  2.6074402672009923e-02  -4.4334664750844061e-01  -4.5832808208039633e-01  -4.3792205032219433e-01  5.4609323061545097e-03  2.0752808247200105e-02  4.8593996049810094e-02  5.0380064577840868e-02  3.0681221746948505e-02  5.5021905693004247e-02  -5.6065851647330578e-01  5.9278912934342586e-02  4.0613299561966104e-02  -4.2585518104812570e-01  1.4132107186419877e-03  -4.2701839916819906e-01  -4.8282818640996389e-01  -4.6057337858293707e-01  5.7336153142965314e-02  3.4083070384843595e-02  -5.4982917115018938e-02  4.5571135830757082e-03  -4.2617509200463616e-01  -4.3526784485463682e-01  5.9629602659609725e-02  -4.7988677096363469e-01  -4.7071160088140424e-01  -4.3898786800281359e-01  5.4315164913944988e-02  -4.7116169796297097e-01  -4.5835462549549277e-01  -4.4265372344334997e-01  3.0803526971374645e-02  5.0173278960733134e-02  1.4051057786939325e-02  -2.6052448231689465e-02  -4.2680339402272433e-01  2.5198490927244899e-02  3.0190706255386373e-02  -4.4124508298237602e-01  4.1305536639728163e-02  -3.9086165529290856e-01  -3.9049437022236333e-01  -1.7289827419084403e-01  -1.7105482908392414e-01  5.6088945572797151e-02  5.4504584066159156e-02  </DataArray> 
</PointData> 
</Piece>
</UnstructuredGrid>
</VTKFile>