<?xml version="1.0"?>
<VTKFile type="UnstructuredGrid"  version="0.1"  >
<UnstructuredGrid>
<Piece  NumberOfPoints="406" NumberOfCells="722">
<Points>
<DataArray  type="Float64"  NumberOfComponents="3"  format="ascii">-6 -2 0  -6 2 0  6 2 0  6 -2 0  -2.8 0 0  -1.2 0 0  -5.500000000001853 -2 0  -5.000000000003705 -2 0  -4.500000000005556 -2 0  -4.000000000007409 -2 0  -3.50000000000926 -2 0  -3.000000000011112 -2 0  -2.500000000012963 -2 0  -2.000000000014814 -2 0  -1.500000000016665 -2 0  -1.000000000018516 -2 0  -0.5000000000203677 -2 0  -2.204547655537681e-11 -2 0  0.4999999999796305 -2 0  0.9999999999814779 -2 0  1.499999999983327 -2 0  1.999999999985175 -2 0  2.499999999987029 -2 0  2.999999999988882 -2 0  3.499999999990735 -2 0  3.999999999992589 -2 0  4.49999999999444 -2 0  4.999999999996293 -2 0  5.499999999998147 -2 0  6 -1.500000000001387 0  6 -1.000000000002774 0  6 -0.5000000000041616 0  6 -5.505595979116151e-12 0  6 0.4999999999958384 0  6 0.9999999999972258 0  6 1.499999999998613 0  5.500000000001853 2 0  5.000000000003705 2 0  4.500000000005556 2 0  4.000000000007409 2 0  3.50000000000926 2 0  3.000000000011112 2 0  2.500000000012963 2 0  2.000000000014814 2 0  1.500000000016665 2 0  1.000000000018516 2 0  0.5000000000203677 2 0  2.204547655537681e-11 2 0  -0.4999999999796305 2 0  -0.9999999999814779 2 0  -1.499999999983327 2 0  -1.999999999985175 2 0  -2.499999999987029 2 0  -2.999999999988882 2 0  -3.499999999990735 2 0  -3.999999999992589 2 0  -4.49999999999444 2 0  -4.999999999996293 2 0  -5.499999999998147 2 0  -6 1.500000000001387 0  -6 1.000000000002774 0  -6 0.5000000000041616 0  -6 5.505595979116151e-12 0  -6 -0.4999999999958384 0  -6 -0.9999999999972258 0  -6 -1.499999999998613 0  -2.776753453941174 -0.1914525314286965 0  -2.708364820523325 -0.3717785376335722 0  -2.598808598538216 -0.5304981265911284 0  -2.454451797386757 -0.65838709271366 0  -2.283683909636528 -0.748012994147384 0  -2.096429344207466 -0.7941670992780535 0  -1.903570655798842 -0.7941670992788195 0  -1.716316090368095 -0.7480129941491368 0  -1.545548202616307 -0.6583870927157747 0  -1.401191401463757 -0.530498126593356 0  -1.291635179477527 -0.371778537635196 0  -1.223246546059047 -0.1914525314295925 0  -1.223246546058803 0.1914525314286035 0  -1.291635179476594 0.3717785376334188 0  -1.401191401461634 0.5304981265909601 0  -1.545548202612898 0.6583870927134221 0  -1.716316090363093 0.7480129941472402 0  -1.903570655792394 0.7941670992780367 0  -2.096429344201276 0.7941670992788055 0  -2.283683909631911 0.7480129941491347 0  -2.454451797383697 0.6583870927157729 0  -2.598808598536385 0.530498126593196 0  -2.70836482052258 0.3717785376349917 0  -2.776753453940975 0.1914525314295042 0  0.4588466633941945 0.2704149791022056 0  -4.424312812173863 0.2760319703992994 0  -3.803977598762586 -0.6841584599595646 0  -0.1330968762779425 -0.6798763971615133 0  2.451109587541276 3.169800318630399e-13 0  -3.563610936250569 0.5929994091167295 0  4.204753319582647 0.2820669554523581 0  -0.4390897559348154 0.6178095532273566 0  -3.041446812595122 1.175550440315544 0  -0.9622132806516797 1.132103015222783 0  1.069493318942931 -0.773608156980569 0  -4.924330687080279 -0.7127064269610045 0  -3.024693497948964 -1.195179289656404 0  -0.9648749555625579 -1.256854520022574 0  -3.443624282349383 -0.2044158249759613 0  -0.5611500783757608 -0.1747080110423833 0  1.60270880116926 0.7487034276124258 0  3.488352576142236 -0.8228939860777884 0  4.816375011670135 -0.8163750116689444 0  3.243628045085357 0.8578172796997985 0  -4.228632884234073 1.228069101636678 0  -2.365220384435482 -1.356128547810356 0  -1.637465979486354 1.3571687267915 0  -1.642380978561139 -1.359365080147485 0  -2.362988915989869 1.356737096243695 0  -5.134120367293631 0.8356299802910161 0  2.077496878467794 -0.9514080034522553 0  4.960859291178299 0.9608592911785537 0  0.3293120056474302 1.148965409695154 0  -5.157560560414062 0.09447106214747865 0  -3.14779387667392 -0.6330563038825547 0  -3.148134455585257 0.4354299640428653 0  -0.8464439673630421 0.4159277415926296 0  -0.9918125625721008 -0.7191748422889824 0  -4.355349213295776 -1.234510499778242 0  1.582074659164868 -0.06850205959954866 0  2.400584045214166 1.204278622181321 0  5.102831660739063 0.03453404176596848 0  4.083259768981113 1.154272958349666 0  -3.992394834362243 -0.1621022234411988 0  0.4290302718942113 -1.225465289645401 0  -3.681487986394671 -1.310544246656267 0  -3.640289698916164 1.187023654838123 0  0.468851680921228 -0.447055967952278 0  3.315209904217932 0.05667935655546536 0  -2.541160649745046 -1.046980928586996 0  -1.45196684542695 1.044189935346116 0  -2.000844595891861 -1.207983108473125 0  -1.453092202970521 -1.061139264918894 0  -2.000050543938391 1.207806685704176 0  -2.548033154566413 1.04418993534851 0  4.13054585796652 -1.232871249381608 0  -0.3301617095463629 1.221692405319566 0  -0.2880491989587189 -1.359626628407983 0  -0.0758941643813178 0.132275811829787 0  2.826389221580753 -1.233168480096227 0  -2.922070412327736 0.7575752117792038 0  1.003070890178416 1.271347915034201 0  -5.319521816151902 -1.310543894393663 0  -1.070407062963812 0.7877698545098388 0  -4.562499863038985 -0.2302396981426722 0  -3.164226661545047 0.07179577787350272 0  -0.9091377812900333 0.132454654016971 0  4.116029045943655 -0.4851826871817362 0  5.316659189209927 -1.316659189208741 0  -0.9498828454673396 -0.4149758979014553 0  -4.037769805263969 0.6896174350675625 0  1.431664772855882 -1.327784137638992 0  -3.646693623568034 0.1600006358878044 0  -2.878371345483476 -0.7910345833001061 0  1.062603041385242 0.2894765870627741 0  -0.547955103783681 0.1635272504420374 0  -4.804809838419659 1.41016301576038 0  -3.042895319571192 -0.3694931303482478 0  -4.59252578392403 0.792267765362792 0  2.823271260730033 -0.5472430318427347 0  -4.28575390662405 -0.7521491832384866 0  -0.5524005545121191 -0.9037367558558163 0  1.815219025072439 1.388812135783969 0  -1.288398729718543 -0.8178399475601057 0  -5.424388493366639 1.35375165044146 0  -2.256991952837567 -1.049538527273222 0  -1.739586738723494 -1.052327527873255 0  -1.738827359988536 1.050180627239116 0  -2.257795730428802 1.049701225145305 0  -0.62222340523776 -0.5483611729237363 0  2.065188519029698 0.5424877383589943 0  0.1055865106318892 0.7347782870471022 0  1.013082573993895 -0.2061877611231605 0  -5.428323520618333 -0.4386412085227075 0  5.374041502384443 -0.5304401760993408 0  3.435185060219232 -1.377658617395091 0  -3.302377238490527 0.8841390072780534 0  -0.9902123298072768 -0.124175295282554 0  0.7186958547669859 0.8724503317343631 0  2.941237214953417 1.390391532351976 0  4.708037787864423 -1.340276032051348 0  5.395029680982659 1.395029680983341 0  3.591022587550188 1.348260650408605 0  2.759385971589342 0.4857447325740718 0  -0.6832705231418494 0.8879387563573758 0  5.437781298507145 0.5981501503262471 0  -2.698603003287285 1.617130043745112 0  -3.463358189947519 -1.013588318179017 0  1.710866040171871 -0.6978716337870808 0  3.642182982762737 0.4555704362064124 0  -2.699802128031161 -1.618310703146212 0  -1.3020054856637 1.619819977935582 0  -2.000000000004996 -1.566396763829867 0  -1.999999999994794 1.566396763830688 0  -1.247812462071684 -1.595232739507426 0  4.59429106759859 1.420052135572917 0  0.9448382581152466 -1.440259145469251 0  -0.116376100998861 -0.2606209011258676 0  -4.774521510507792 0.4245390872783272 0  -2.983910172370106 -0.1208000607277856 0  -3.353983741142061 1.576062863985777 0  -5.473352579109997 0.4917619255280954 0  -4.828650470275986 -1.493148538517745 0  4.639973657165532 -0.2833178611094909 0  -2.660279445404468 0.7699932347178977 0  -1.335045190775955 0.7744876666923373 0  -3.395669172689978 0.2584951122361346 0  2.279110606119369 -1.465899541383697 0  4.734317729212562 0.4520963557364723 0  -0.6334913028224612 1.584213953723378 0  2.121854101359879 -0.4289611127787379 0  -3.474459720833238 -0.4977581316675216 0  -1.066539898844178 0.3411379476537602 0  -3.361849707555382 -1.611428512420182 0  -4.099039818938317 0.3306400369415774 0  -2.935324777364672 0.354721898811665 0  -3.973578595052027 1.482940358734671 0  3.784450148635689 -0.0702780807301525 0  -1.191348122671212 -0.5614501189722798 0  -2.838672605956353 -0.5493179047027598 0  -1.184983441257359 0.5617520886612424 0  -2.811184099847449 0.5574240755049175 0  0.2702752249355158 -0.8003643570420809 0  -0.6945947797857237 -1.593893965175195 0  0.001175881878679056 1.504521009023778 0  0.6072931735145096 1.501814722697789 0  -3.991896293645949 -1.047264188412552 0  -3.734097395159253 -0.3261671578666079 0  -5.539652387691843 -0.8857154182585802 0  -4.395061924111849 1.563293728588296 0  0.2258327611651416 -0.08745142624872881 0  -3.774816634825771 0.8676973328379478 0  2.208484493569073 1.6256686312487 0  0.1309939514660535 -1.566169703482512 0  -5.551414360955331 0.9459842275970113 0  -4.04734138658365 -1.51163984963472 0  -4.947145019546805 -0.3299925153029702 0  4.320410447198621 0.6970857582435144 0  -4.707557346727139 -1.000565649857444 0  1.353711468973986 1.582551234446199 0  1.674156483558973 0.3266252271732694 0  -4.039105552973997 -0.4537604746027087 0  0.01051727619263377 -1.088858357362194 0  -0.2234942609176301 0.8619127912343982 0  -2.95903482691863 0.1219373374385197 0  -4.682467695920681 0.0804575682243254 0  5.535750224195656 -0.1525732643419722 0  -4.290083947414376 -0.0005258314026840717 0  1.136102562417988 0.7655312464039168 0  -2.816589394567214 0.9927597419785312 0  -2.645374456162409 -0.7645902451387543 0  4.18414576655837 1.624276131878667 0  0.7127337088822223 -0.9006358935856398 0  1.972418102153911 0.9727040774616764 0  -2.42199174813501 0.8591219219254587 0  -2.418604734200992 -0.8552987735117754 0  -5.573597213364169 -0.03612430678117123 0  2.024792870869397 0.05574071630590883 0  -1.578875191508968 0.861424470724936 0  -1.54706008231699 -0.8630049102346303 0  3.848662181064435 -1.569601980075533 0  -2.000000000003871 -0.9746445732264465 0  -1.99999999
[...]
<PointData  Scalars="f_24"> 
<DataArray  type="Float64"  Name="f_24"  format="ascii">-7.5974776091202201e-01  -7.5974776091202201e-01  0.0000000000000000e+00  0.0000000000000000e+00  -9.2474063099557824e-01  -1.8802345945602950e-01  -7.5101551503627817e-01  -7.4236152701195446e-01  -7.3163158852853283e-01  -7.1917099547284169e-01  -7.0315695624389885e-01  -6.7342136680101672e-01  -6.2318614816493401e-01  -5.1842798595236794e-01  -3.8003732506990084e-01  -2.5979558232299876e-01  -1.8327183205242950e-01  -1.3928959365944954e-01  -1.1252990788140221e-01  -9.4767605882833283e-02  -8.1130883668782877e-02  -7.0304583223225664e-02  -5.9360627156656645e-02  -5.0793575127691573e-02  -4.1895248648095670e-02  -3.2996183380520377e-02  -2.4481184581667877e-02  -1.6136972514835819e-02  -8.4441350294570394e-03  0.0000000000000000e+00  0.0000000000000000e+00  0.0000000000000000e+00  0.0000000000000000e+00  0.0000000000000000e+00  0.0000000000000000e+00  0.0000000000000000e+00  -8.4034092367466975e-03  -1.6343345732833563e-02  -2.4599157983671141e-02  -3.3425013209260099e-02  -4.1715727938026366e-02  -5.0570971286724886e-02  -5.9914746632146652e-02  -7.0098530000175505e-02  -8.0903071423344089e-02  -9.4586296612030468e-02  -1.1250714626874399e-01  -1.3936365170368892e-01  -1.8251489089862449e-01  -2.6076568913633114e-01  -3.7913482836314610e-01  -5.1853737465872340e-01  -6.2323866474217315e-01  -6.7319691598891263e-01  -7.0330367172627106e-01  -7.1924565165007415e-01  -7.3240456785753405e-01  -7.4182754081933555e-01  -7.5112339893573643e-01  -7.5974776091202201e-01  -7.5974776091202201e-01  -7.5974776091202201e-01  -7.5974776091202201e-01  -7.5974776091202201e-01  -7.5974776091202201e-01  -7.5974776091202201e-01  -9.2034404008087023e-01  -9.0591961009885902e-01  -8.5694209719842052e-01  -7.6724912539379020e-01  -6.5089836031539650e-01  -5.1698789347009766e-01  -3.9211917976306043e-01  -2.9372848500579168e-01  -2.3540633551781728e-01  -2.0689359981362354e-01  -1.9558503466662211e-01  -1.8991801201025779e-01  -1.8988185081222289e-01  -1.9556927902611926e-01  -2.0754648876783557e-01  -2.3491539799009276e-01  -2.9328958112609077e-01  -3.9231061416265045e-01  -5.1699093922195616e-01  -6.5048923047361740e-01  -7.6779657759799069e-01  -8.5635976194599706e-01  -9.0395170081843323e-01  -9.2180408461919849e-01  -1.2657151698317914e-01  -7.4343855338302334e-01  -7.3603812534405377e-01  -1.5758569333685912e-01  -6.4484951888740816e-02  -7.4598466341068359e-01  -3.0458638755983258e-02  -1.7589546684185572e-01  -6.8661328673490085e-01  -2.4727447049640100e-01  -9.9668283207949487e-02  -7.4368840115744561e-01  -6.8352343398945070e-01  -2.5464025073464230e-01  -7.7711096901573296e-01  -1.7641587062732683e-01  -8.3655711639399416e-02  -4.2935801079697924e-02  -1.9718437665007096e-02  -4.7409542005707433e-02  -7.2664473881625558e-01  -5.9575980463735168e-01  -4.1479961345006799e-01  -4.1621134886066935e-01  -5.9527146671239373e-01  -7.4614754957284790e-01  -7.1224781354589692e-02  -1.7288906439527924e-02  -1.2898128693121422e-01  -7.4879426511690306e-01  -7.6087953078929871e-01  -7.9191989508565186e-01  -1.9347420161581108e-01  -2.1817045696493031e-01  -7.2925940645768050e-01  -8.6288937984315500e-02  -6.3438475754976784e-02  -1.5044218491394881e-02  -3.2192762660248543e-02  -7.4905826336672399e-01  -1.2340239761942912e-01  -7.0923380460209307e-01  -7.1089868403366951e-01  -1.2564980661016131e-01  -4.6768199758901070e-02  -6.6101461580471454e-01  -3.3009176938209556e-01  -5.1657806444514720e-01  -3.3259443430930719e-01  -5.1636620394481569e-01  -6.6316142962089819e-01  -3.1259567584843086e-02  -1.7536927248745651e-01  -1.7157566306433730e-01  -1.5276495968734394e-01  -5.4849319399691204e-02  -7.5062134676659342e-01  -9.9296452041977262e-02  -7.4792995453816580e-01  -2.3285712795352770e-01  -7.4393026403102758e-01  -8.2055416713024387e-01  -1.8755575024545917e-01  -3.1929002736623718e-02  -1.1216123696563503e-02  -1.9711893467896138e-01  -7.3593312325457816e-01  -8.5927655543986459e-02  -7.6324383750599678e-01  -7.4367010363130293e-01  -1.0231708799933575e-01  -1.7586317634488971e-01  -7.3805194990323575e-01  -8.1888640075379726e-01  -7.3872052263667864e-01  -5.6083037416099352e-02  -7.3555498809726849e-01  -1.9066037825689916e-01  -7.5973629332752979e-02  -2.5690137621263182e-01  -7.4974142789170695e-01  -6.0068793387427410e-01  -4.1121625699203890e-01  -4.1055120505990833e-01  -6.0087686259245410e-01  -1.8549432716323777e-01  -7.2651875089492279e-02  -1.4325029911755482e-01  -1.0432706249686349e-01  -7.5131185293429370e-01  -1.0429591690377493e-02  -4.3358620370720580e-02  -7.2496191970445201e-01  -1.8878122715272302e-01  -1.1220329680315147e-01  -5.2464721356489795e-02  -2.1380116822791742e-02  -9.9388783794222054e-03  -4.0707415335813950e-02  -5.7458717369887738e-02  -2.0173153375760250e-01  -9.3506170242744751e-03  -6.3305942091774281e-01  -7.1499703293855477e-01  -8.0948689798714973e-02  -4.0479349968767196e-02  -6.3319848432453207e-01  -3.3474139745198045e-01  -5.1137824098468787e-01  -5.1138662532563017e-01  -3.2056705752060305e-01  -2.3296090718125578e-02  -1.0051369861133942e-01  -1.5510238897071171e-01  -7.4398782570435218e-01  -8.6258461872173986e-01  -6.8889673828585651e-01  -7.5202653656597951e-01  -7.3818445418513501e-01  -2.2904609570976266e-02  -7.5207538391495021e-01  -2.5311655189462023e-01  -7.7771986848844410e-01  -6.5455439443721453e-02  -2.1250213225152741e-02  -2.1106080830806379e-01  -7.1598340013601908e-02  -7.5641622116566942e-01  -1.9541679993021768e-01  -6.8969051596813757e-01  -7.4483597415938008e-01  -8.4535084470079935e-01  -7.1684338152891636e-01  -3.8019587598859428e-02  -2.1293753041502278e-01  -8.1576185653667177e-01  -2.1241755242168053e-01  -8.1903020431450380e-01  -1.3381813833066303e-01  -2.1839124071538457e-01  -1.4828473114007837e-01  -1.1376543166037270e-01  -7.2455110704114167e-01  -7.5372690173940116e-01  -7.5231711097443033e-01  -7.2856527387391079e-01  -1.3770833114728021e-01  -7.2808591449458815e-01  -6.6624992430710905e-02  -1.3850187536332370e-01  -7.5248038026489117e-01  -7.1896476807245413e-01  -7.4601045470112970e-01  -2.8304542187286862e-02  -7.3813690599427439e-01  -8.7222385547403400e-02  -8.3169857816849296e-02  -7.4269823869438256e-01  -1.4862135401201035e-01  -1.6395797602193413e-01  -8.7046319864907096e-01  -7.4477472220866281e-01  -7.7679029374777163e-03  -7.4543235518415796e-01  -9.7453369458933820e-02  -6.9835578690294708e-01  -7.5310932795308350e-01  -3.0340672306093740e-02  -1.1233445083580521e-01  -7.3471915812073518e-02  -6.8719117356235504e-01  -6.8657654725082007e-01  -7.5349674885950235e-01  -7.4460190931554399e-02  -3.0880425375562198e-01  -3.0286804299304598e-01  -3.5994423496246833e-02  -4.9597444378470262e-01  -4.9597927825354615e-01  -6.5369281138916835e-01  -3.9973087286880343e-02  -2.7615736027554311e-01  -1.1739451054833297e-01  -6.4721155957827726e-03  -6.8720129822570208e-03  -5.5222232468357821e-02  -3.1526724609562018e-01  -2.6820188693561070e-01  -6.1481493975074956e-02  -2.7300065348485596e-02  -2.9115042153457955e-02  -7.6720049886548541e-02  -1.4195979928926203e-01  -7.8493486378866728e-01  -5.5382177057803073e-02  -6.5326636483178113e-01  -7.5497681738642752e-01  -3.5350927850727208e-02  -4.7442286191797446e-02  -1.6514515768709697e-02  -1.6576261331210412e-01  -1.5581035519173833e-01  -1.8315899268147046e-01  -3.2221049041893163e-01  -5.5828485337489193e-02  -7.1567945545356382e-01  -1.1313394315674877e-01  -7.4805671268060780e-01  -7.5275389267742288e-01  -4.9540261763138124e-02  -1.8655095644172537e-01  -7.4001434997093007e-01  -7.0063179561489053e-01  -2.0328983447745028e-01  -7.2990908953893474e-01  -5.0878005547692701e-02  -1.9933260111189505e-01  -8.8925792763940747e-02  -5.7571777419047010e-01  -4.3293432470434484e-01  -4.3109099285703972e-01  -5.7565494959238350e-01  -8.6232416323076794e-02  -6.9461513904194960e-01  -4.6627719967433062e-02  -2.1343423997116542e-01  -6.4944606200005358e-03  -7.4481788909974334e-01  -8.2345177756409937e-01  -7.0754338337125722e-01  -1.1294636980164274e-01  -9.3195918856335491e-02  -2.4039032516463013e-02  -7.6178706186167255e-01  -1.1046034589426064e-01  -7.4468920174061159e-01  -7.4141635204344225e-01  -7.4580826050404325e-01  -7.8550615813403324e-01  -8.0868976157106698e-01  -1.4074044028039809e-01  -3.9110891664967722e-02  -1.8243907089728234e-01  -8.8389143388011848e-02  -7.3959280363146762e-01  -1.7102119631829205e-01  -1.8878839534893102e-01  -7.0697753994824935e-03  -1.5517331405644538e-02  -1.9486508753443801e-01  -1.7210408869562488e-01  -1.6323868931093860e-02  -4.9114751335779083e-02  -7.4417048814297193e-01  -5.7896670067141151e-02  -1.1307371818296440e-01  -7.6307827493878821e-01  -7.2363005151915694e-01  -7.5465753434301108e-01  -2.1806579563074163e-01  -7.3279044202721777e-01  -1.3688862130939151e-02  -2.3836044836959093e-02  -8.7036512103120023e-01  -1.6579741452385660e-01  -1.2637334035961345e-01  -9.9533824918106861e-02  -7.5364924729611027e-01  -3.6832912242973845e-02  -2.9308208756431892e-02  -7.0544558423972015e-01  -6.8814442829198763e-01  -7.4697539132973900e-01  -5.5397799869711922e-03  -1.8421988479678630e-01  -6.2302781355377174e-02  -6.3610392708015204e-02  -1.6787765559408566e-01  -9.6324343535812013e-02  -7.9301520036975059e-01  -9.6827802927787171e-02  -1.5068474073430860e-01  -7.5536536054224446e-01  -2.0592401071266908e-01  -6.6839015484434516e-01  -7.5204695748488692e-01  -7.4314090168280422e-01  -7.5690922008855605e-02  -3.7848977515923379e-02  -2.6299278358064554e-01  -4.7778581024885015e-03  -7.5575295795780784e-01  -7.4763681639648460e-01  -7.6449576135805206e-02  -7.3425559037905519e-01  -7.2882019111919116e-01  -7.3698378014702792e-01  -1.2679091143607077e-01  -7.1325831964564945e-01  -7.2376548454890599e-01  -7.3348086249142708e-01  -3.4543104056557909e-02  -6.5829400639400279e-02  -1.5308392331734574e-02  -2.3551809028075646e-01  -6.6806569998182119e-01  -1.7541811519884434e-01  -1.6813186183659118e-01  -7.4305575267060697e-01  -4.7033589150462324e-02  -5.9401720497578270e-01  -5.9363368752355294e-01  -3.7525285447788614e-01  -3.7341932561560476e-01  -9.1794852977047953e-02  -8.0043632839408282e-02  </DataArray> 
</PointData> 
</Piece>
</UnstructuredGrid>
</VTKFile>