<?xml version="1.0"?>
<VTKFile type="UnstructuredGrid"  version="0.1"  >
<UnstructuredGrid>
<Piece  NumberOfPoints="622" NumberOfCells="1116">
<Points>
<DataArray  type="Float64"  NumberOfComponents="3"  format="ascii">-6 -2 0  -6 2 0  6 2 0  6 -2 0  -2.8 0 0  -1.2 0 0  -5.500000000001853 -2 0  -5.000000000003705 -2 0  -4.500000000005556 -2 0  -4.000000000007409 -2 0  -3.50000000000926 -2 0  -3.000000000011112 -2 0  -2.500000000012963 -2 0  -2.000000000014814 -2 0  -1.500000000016665 -2 0  -1.000000000018516 -2 0  -0.5000000000203677 -2 0  -2.204547655537681e-11 -2 0  0.4999999999796305 -2 0  0.9999999999814779 -2 0  1.499999999983327 -2 0  1.999999999985175 -2 0  2.499999999987029 -2 0  2.999999999988882 -2 0  3.499999999990735 -2 0  3.999999999992589 -2 0  4.49999999999444 -2 0  4.999999999996293 -2 0  5.499999999998147 -2 0  6 -1.500000000001387 0  6 -1.000000000002774 0  6 -0.5000000000041616 0  6 -5.505595979116151e-12 0  6 0.4999999999958384 0  6 0.9999999999972258 0  6 1.499999999998613 0  5.500000000001853 2 0  5.000000000003705 2 0  4.500000000005556 2 0  4.000000000007409 2 0  3.50000000000926 2 0  3.000000000011112 2 0  2.500000000012963 2 0  2.000000000014814 2 0  1.500000000016665 2 0  1.000000000018516 2 0  0.5000000000203677 2 0  2.204547655537681e-11 2 0  -0.4999999999796305 2 0  -0.9999999999814779 2 0  -1.499999999983327 2 0  -1.999999999985175 2 0  -2.499999999987029 2 0  -2.999999999988882 2 0  -3.499999999990735 2 0  -3.999999999992589 2 0  -4.49999999999444 2 0  -4.999999999996293 2 0  -5.499999999998147 2 0  -6 1.500000000001387 0  -6 1.000000000002774 0  -6 0.5000000000041616 0  -6 5.505595979116151e-12 0  -6 -0.4999999999958384 0  -6 -0.9999999999972258 0  -6 -1.499999999998613 0  -2.796147781337886 -0.07841371226233997 0  -2.784628224322852 -0.1560722576115546 0  -2.765552268586196 -0.2322277418021561 0  -2.739103626009626 -0.30614674589063 0  -2.705537011479457 -0.3771173894593519 0  -2.665175689843037 -0.4444561864141836 0  -2.618408362691456 -0.5075146273293722 0  -2.565685424950688 -0.5656854249477874 0  -2.507514627332613 -0.6184083626887972 0  -2.444456186417533 -0.6651756898407991 0  -2.377117389462776 -0.7055370114776264 0  -2.306146745894456 -0.7391036260080417 0  -2.232227741806235 -0.7655522685849585 0  -2.15607225761588 -0.784628224321992 0  -2.078413712266957 -0.7961477813374315 0  -2.000000000003407 -0.7999999999999998 0  -1.921586287739523 -0.7961477813380696 0  -1.843927742389945 -0.7846282243231506 0  -1.767772258198879 -0.7655522685865098 0  -1.693853254109962 -0.7391036260098718 0  -1.622882610540873 -0.7055370114795768 0  -1.555543813585629 -0.6651756898429115 0  -1.49248537267008 -0.6184083626910072 0  -1.434314575051535 -0.5656854249500112 0  -1.381591637310384 -0.5075146273316149 0  -1.334824310158267 -0.4444561864161359 0  -1.294462988521423 -0.3771173894609975 0  -1.260896373990956 -0.3061467458920351 0  -1.234447731414138 -0.2322277418032578 0  -1.215371775677287 -0.156072257612254 0  -1.203852218662147 -0.07841371226267954 0  -1.203852218662115 0.07841371226235888 0  -1.215371775677132 0.156072257611478 0  -1.234447731413795 0.232227741802127 0  -1.260896373990353 0.3061467458905811 0  -1.294462988520456 0.3771173894591898 0  -1.334824310156812 0.444456186413959 0  -1.381591637308413 0.5075146273292139 0  -1.434314575049147 0.5656854249476236 0  -1.492485372667197 0.6184083626886415 0  -1.555543813582104 0.6651756898405565 0  -1.62288261053673 0.7055370114773629 0  -1.693853254105125 0.7391036260078683 0  -1.767772258193396 0.7655522685848468 0  -1.84392774238373 0.7846282243219146 0  -1.921586287732977 0.7961477813374253 0  -1.999999999996558 0.8 0  -2.078413712260516 0.7961477813380661 0  -2.156072257610207 0.7846282243231205 0  -2.232227741801178 0.7655522685864928 0  -2.306146745890059 0.7391036260098632 0  -2.377117389459098 0.7055370114795929 0  -2.444456186414405 0.6651756898428894 0  -2.50751462732998 0.6184083626909587 0  -2.565685424948549 0.5656854249499272 0  -2.61840836268981 0.5075146273313792 0  -2.665175689841831 0.4444561864159886 0  -2.705537011478692 0.3771173894607835 0  -2.739103626009108 0.3061467458918818 0  -2.76555226858589 0.2322277418031643 0  -2.784628224322724 0.1560722576122001 0  -2.796147781337853 0.07841371226267957 0  0.6720367661319522 0.1312687487860887 0  -4.389489086394485 0.3544472233398538 0  -3.816221554046232 -0.6097988664512611 0  -3.552726516474419 0.9342959806851625 0  -0.2536610443052337 0.8162373554653355 0  -0.1843238977799138 -0.6649951410982842 0  -3.613359951620445 0.1086570650978273 0  -3.146954163409593 -1.074378179335012 0  -0.4255266515582625 0.07734891565364931 0  -0.9413731612925856 1.168014724254929 0  -2.947764053183577 1.200029094390044 0  -0.8319852757411681 -1.058626838707328 0  2.675418990747819 -1.137325591670363e-12 0  -2.602010642259726 -1.287560129290477 0  -2.334401622060699 1.335006108940604 0  -1.524718496628401 1.32890816230333 0  -1.369813829148039 -1.26145150481762 0  -3.294065651892671 -0.4630240940010318 0  -2.072749204569071 -1.388981302138359 0  -0.7546165313921411 0.5601792161340381 0  -3.224879719581335 0.4382689715877901 0  -0.7073137361349826 -0.4625305410752652 0  4.326242945813966 0.3262429458150917 0  -3.187880061217201 0.07437712177460168 0  -2.94792024259867 0.7030255657465158 0  -2.678809277907896 0.9152683582887104 0  -4.911626141576894 -0.5700186648601188 0  -2.980647654587299 -0.5685006168686053 0  -2.769438919323564 -0.8202775213660614 0  -1.936950121013948 1.220669938589229 0  -0.8971643766260747 0.2762459428874499 0  -0.8760878018253068 -0.06836412137772707 0  -1.086827485441145 0.6772548942594016 0  -1.31355927028917 0.8808768148414213 0  -1.034266382739347 -0.5912381576649568 0  -1.241594139118264 -0.836771920085274 0  1.667161185638911 -0.6367996576268693 0  1.778189842800902 0.7191719841256095 0  -3.065106827511819 -0.266795371500425 0  3.714311277362231 -0.7275465302492842 0  -1.728329421201519 -1.09954751473283 0  4.870629493137888 -0.7325040699186681 0  -3.024707894719303 0.2567561910603656 0  -4.375540207252226 1.228935704312058 0  -2.272077148001781 -1.086192861256262 0  3.351408248797803 0.9175227128129597 0  -5.141847419540732 0.8091901960109126 0  0.5769368286199241 1.111816231125821 0  0.7411482978492124 -1.079569101289617 0  -1.074013749991219 0.430231207546053 0  -1.04664573441257 -0.3358382377487088 0  -2.439195336951085 0.9224778883059374 0  -2.902607676587358 0.4360473765597399 0  -1.629450174302152 1.035617385691805 0  -2.146859933125513 1.032375363966426 0  2.587625196444542 -0.9999926061845814 0  -2.529286802957126 -0.8830616815739111 0  -1.493798157676768 -0.8794705728517196 0  -1.932158132383022 -1.026681566564148 0  -4.09956359341904 -0.1372485582942864 0  5.055802064425553 1.050933510837308 0  -4.413659685984891 -1.207626391697488 0  -4.961411026474009 0.1201902955685026 0  -3.771151641156835 -1.303594976371997 0  -3.001321503506133 -0.04919177107285733 0  -3.881733605683001 0.5124517634812003 0  -0.1971627317996802 -1.336445372382849 0  -2.742825060181767 0.6732573903735507 0  2.520439429199979 1.129372838786189 0  -1.026326428668429 0.1384273198437734 0  -2.779290004861729 -0.5844691722665721 0  -2.895095740820851 -0.4261289730972082 0  -1.275682076193407 0.6630703172777138 0  0.1045291701958869 0.3433373435296472 0  5.175560481258801 0.0608563229178163 0  -1.211574424201636 -0.5847362589868093 0  -1.85847006217035 1.007917631940711 0  4.152535916385823 1.131901130662082 0  -1.04878257200685 -0.1253529988863012 0  1.432836501626023 0.05634449574318775 0  3.560672936003603 0.01188897172456759 0  -3.351823698389408 -0.1821329582635926 0  -5.145153363200735 -1.259166339382508 0  0.03473693330309885 -0.1724947236036572 0  -4.377830921337186 -0.6172564090242229 0  -0.3943750728122595 1.410897156959435 0  -1.661073679471639 -0.9342065000197183 0  -1.49086536677686 0.8331714487926741 0  -2.584486130952032 0.7871482690034864 0  4.270535884593893 -1.259607924744415 0  -1.757417028085795 -1.505182186951191 0  -3.430586920998477 1.425579221231371 0  -2.917598827418652 -0.2298465409534677 0  -2.328978331116049 -0.9300959620317677 0  -2.148543000691344 -0.9751580214451921 0  1.002654111360038 -0.4521702885594788 0  -4.628651824080903 -0.1127998710567241 0  -2.948904386702482 0.1555943115410545 0  0.4165242577134774 -0.5629432649478633 0  -3.698137692471105 -0.3173027948676715 0  -3.491400684461791 -0.7926319721650269 0  -0.3844454817728994 0.4680628696134375 0  -3.207830713508533 0.9778749990559993 0  3.229909751065535 -1.326302454776001 0  5.330007715336748 -1.312905173261894 0  -2.649214054100534 -0.713314536278899 0  1.342022964818772 -1.328315248672686 0  -2.556460939068198 1.202372762828344 0  -0.3497819755044588 -0.3080427614060888 0  -4.928440909495523 1.387622767511967 0  1.309170811945155 1.337467055109531 0  -1.352031940181449 -0.7151198948590243 0  -0.6132855723904642 0.9519045895123004 0  4.266838388406324 -0.3707357390867402 0  -3.834389788310238 1.371594798941152 0  -1.187890214580146 0.4851427123079557 0  -1.109118888029193 0.3185947354467283 0  0.1837819401738013 1.234799661476361 0  1.108165254659559 0.6237223548284967 0  -0.5266600156584522 -0.8113991260886402 0  -4.643822083543982 0.7834094684931707 0  -1.146235204666366 -0.4027330721405781 0  2.049029845992713 -0.2664662499985428 0  2.002665761665898 -1.328912351029848 0  -1.678783505586872 0.8978832065736417 0  -2.049499525232052 0.9483890761590005 0  -2.229972236535132 0.9181006323151361 0  -3.033763529945482 -1.54240494280775 0  -3.562344364746847 0.5622550957224539 0  -5.524396842903405 -0.2709714867672603 0  -0.9710982764034376 -1.549038578476423 0  3.058819320130555 -0.5375106252795963 0  -4.170365230099585 0.7342553699229977 0  -1.045878746461381 -8.187420622554697e-05 0  -1.864822945411764 -0.9219031104673102 0  -0.6251005091687033 -0.2120650512195049 0  2.317562622406059 0.4886417799113238 0  -0.6674371191466613 0.1483993095055008 0  -2.705757882979874 1.609712312948224 0  
[...]
<PointData  Scalars="f_24"> 
<DataArray  type="Float64"  Name="f_24"  format="ascii">9.9999997602964175e-01  9.9999997602964175e-01  9.9999997602964175e-01  9.9999997602964175e-01  4.8313025753332289e-01  8.5852312235924777e-01  9.8563145740959446e-01  9.7201946780793047e-01  9.5913321949612418e-01  9.4917236385872961e-01  9.4247834706319178e-01  9.4041505316243856e-01  9.3826168147506406e-01  9.2125379110812622e-01  8.7616440227802150e-01  8.4475676128906207e-01  9.0610203506825138e-01  1.0169114014068632e+00  1.0913992635676319e+00  1.1153707290114767e+00  1.1201301148115650e+00  1.1174563245022702e+00  1.1083980456990898e+00  1.0948241265070668e+00  1.0801007980490231e+00  1.0629485625039934e+00  1.0481348817440239e+00  1.0308449442570666e+00  1.0163695327028524e+00  9.9999997602964175e-01  9.9999997602964175e-01  9.9999997602964175e-01  9.9999997602964175e-01  9.9999997602964175e-01  9.9999997602964175e-01  9.9999997602964175e-01  1.0162163746408757e+00  1.0310777369097508e+00  1.0480701917460900e+00  1.0625949986773962e+00  1.0796907814490770e+00  1.0954897679374516e+00  1.1074313234072912e+00  1.1173282785931946e+00  1.1195704710890566e+00  1.1149950330521785e+00  1.0915414494082334e+00  1.0217063770716184e+00  9.0942022774230968e-01  8.4690779036221076e-01  8.8042487717526319e-01  9.2016605564709231e-01  9.3805820983491028e-01  9.3964320075268326e-01  9.4206525411811282e-01  9.4824128085958381e-01  9.5910559291358588e-01  9.7144532841102949e-01  9.8510797713471587e-01  9.9999997602964175e-01  9.9999997602964175e-01  9.9999997602964175e-01  9.9999997602964175e-01  9.9999997602964175e-01  9.9999997602964175e-01  9.9999997602964175e-01  4.8757374661414749e-01  5.0111230842407517e-01  5.1078918437136256e-01  5.3620766041154144e-01  5.5755270539369939e-01  6.0044747876626603e-01  6.1515750524956003e-01  6.6285328370576679e-01  6.7545098284422034e-01  7.3112080837920379e-01  7.5626209639476660e-01  8.1765996440828392e-01  8.5023508048611995e-01  8.9806317526715607e-01  9.3037643467882514e-01  9.5879150563627069e-01  9.7569150440792474e-01  9.7170340476839023e-01  9.5396124875771549e-01  9.2751958229723530e-01  8.9864320049958935e-01  8.7235620862628194e-01  8.5368057950194642e-01  8.4129871770523312e-01  8.3650421721735924e-01  8.3588327621482050e-01  8.3943074586443922e-01  8.4427370065180218e-01  8.4971959385616314e-01  8.5433073786054570e-01  8.5749406117509308e-01  8.5747831911262695e-01  8.5440800266647410e-01  8.4978801216241795e-01  8.4447004239893120e-01  8.3910028215897259e-01  8.3594122068303711e-01  8.3579213950605358e-01  8.4080663206248996e-01  8.5275769919254873e-01  8.7201465338400863e-01  8.9863980737736104e-01  9.2927803383137142e-01  9.5572812354513759e-01  9.7496199418910334e-01  9.7553903031616851e-01  9.6230568900207936e-01  9.3659265390750268e-01  8.9571180537351947e-01  8.6800531420714566e-01  8.2209286818567984e-01  7.6504180441627934e-01  7.0991988626799551e-01  6.9949276963964591e-01  6.4026442928701455e-01  6.2223259778522266e-01  5.9527668544815016e-01  5.6426628299825277e-01  5.3254063174873256e-01  5.2287559657976990e-01  4.9765266084518206e-01  4.8924173709800828e-01  1.0638990533500237e+00  9.3984475374148679e-01  9.1547429905788913e-01  9.1979555177532213e-01  9.2512919822702677e-01  9.5624454141130633e-01  8.8010245788922248e-01  9.2450160140487192e-01  9.2672793681959176e-01  7.2146464796529164e-01  9.3381453815520765e-01  7.1961618903255054e-01  1.0977868909007091e+00  9.4476805773029437e-01  9.4154695204304362e-01  8.5574737829718761e-01  8.1276192524892388e-01  8.5895475831120649e-01  9.3380136892400845e-01  8.4533679026180608e-01  8.4224909016236360e-01  8.6426035784535704e-01  1.0524310515160669e+00  7.9195041697158486e-01  8.5831514057441305e-01  9.0174711268312147e-01  9.6301734973677733e-01  8.2347637087655423e-01  8.7907907422659914e-01  9.1860554078970169e-01  8.6231168390714330e-01  8.7244392061570897e-01  8.0724638424833228e-01  8.1636725516455377e-01  8.2060071576560711e-01  8.0327602766360617e-01  1.1010628346203795e+00  1.1022394955789443e+00  7.6568684989398283e-01  1.0714290237046697e+00  9.0607672983685228e-01  1.0356382534856827e+00  7.4649840690542735e-01  9.5208879802891999e-01  9.2302797698711092e-01  1.0828019386478038e+00  9.7216418980647890e-01  1.0885387995651186e+00  1.0943492140093642e+00  8.4001030604018700e-01  8.4862982959265421e-01  8.9275375639481414e-01  7.5323557947372199e-01  8.9396979666086118e-01  9.1269872988155520e-01  1.1018754230727306e+00  8.8646444745846731e-01  8.7206347787941740e-01  9.1748209832658256e-01  9.2191523434957823e-01  1.0298312970522008e+00  9.5334577619262040e-01  9.6318039955180546e-01  9.4064067058727618e-01  7.0169508079706222e-01  9.1594620823227269e-01  9.3058750181429595e-01  8.1778355600125430e-01  1.1038542719689000e+00  8.6054481018549744e-01  7.7830842804392641e-01  7.4357505607733743e-01  8.2518350339151492e-01  1.0082076310347066e+00  1.0258993790451809e+00  8.2645378548509196e-01  9.2174948205215690e-01  1.0581606486442456e+00  8.5986577298947908e-01  1.0951829165579017e+00  1.0756167903180227e+00  8.4091780600063681e-01  9.7448987916206165e-01  9.9570235019667863e-01  9.4271839942385305e-01  8.6745953319318547e-01  9.1045160056917929e-01  8.6892367193910081e-01  8.4957803916711161e-01  1.0547278759520662e+00  9.0562071397669441e-01  9.3924500966114854e-01  6.7765383364188714e-01  8.9019721100184446e-01  9.0410694523426971e-01  1.0866589304719108e+00  9.4939240675287728e-01  6.7770855862963986e-01  1.0520192030428495e+00  8.9478126505516020e-01  9.0869799655865657e-01  9.2099372550844139e-01  9.1484723270352786e-01  1.0874840920718687e+00  1.0212732921069301e+00  8.2068965766065172e-01  1.1102341536054665e+00  9.3991135674514337e-01  9.3442268421081109e-01  9.6848045118590564e-01  1.1101145956934180e+00  8.3474359592166025e-01  7.8160142146113387e-01  1.0543238418658845e+00  9.4274518490525439e-01  8.3373252037979229e-01  8.4768748743212008e-01  1.0431575313437833e+00  1.0929754209016502e+00  8.3411761652654715e-01  9.5479450301111191e-01  8.4037697954607615e-01  1.1023373793693960e+00  1.1112888554590397e+00  9.1969265553746005e-01  9.1167041976476104e-01  8.8591660640333636e-01  9.4136933379402854e-01  8.9566394190742049e-01  9.8378319891183830e-01  7.9639345071573120e-01  1.0897770687781307e+00  9.3603486542355319e-01  8.6213712213007232e-01  9.3228959512111864e-01  8.9465371422096873e-01  1.1024379473997064e+00  8.9194746554340543e-01  9.4096218355403627e-01  1.1120354967930897e+00  7.6125960345726074e-01  6.7599792722636454e-01  8.7141459752984451e-01  8.8665572743121090e-01  9.8644325683387390e-01  1.0288828189873596e+00  8.4252578369170161e-01  8.8406285677534158e-01  9.1358599321281886e-01  9.1072776144231360e-01  8.3968185634439596e-01  8.7557468882457079e-01  6.9650235095568502e-01  7.6929137092228550e-01  8.5304733273298283e-01  1.0344899867186437e+00  1.0206611679758204e+00  8.9395363093380908e-01  1.0923060582073894e+00  7.9542143644391394e-01  9.8269281428569266e-01  7.8620598305161615e-01  1.0657636499808179e+00  1.0743689264375795e+00  8.4734258121202899e-01  9.1197282972236260e-01  7.5765985157440296e-01  9.3224583028201147e-01  1.0194093197724410e+00  8.2773424662469886e-01  7.8110889070915135e-01  7.8884585433542598e-01  8.0500861510399924e-01  1.0941381629107618e+00  9.3935833671188362e-01  7.7357000013832156e-01  9.7928281565870168e-01  9.0603808762511229e-01  6.1668445313020614e-01  6.4909534565322513e-01  7.5062080503540540e-01  1.0179391438840211e+00  9.2884821649261207e-01  1.0662077160321455e+00  8.6901585088779576e-01  9.0838487294393555e-01  9.5577388100725513e-01  1.0424282058115093e+00  8.3931966180780049e-01  7.4623559952320895e-01  8.0404276945494169e-01  6.1793609305985986e-01  8.5814226764953072e-01  8.3477754955587080e-01  1.0718733385575128e+00  1.0379031000672960e+00  9.3917654691369445e-01  8.9227893196673347e-01  8.3474729122874780e-01  9.3886417033696223e-01  8.6737334807235567e-01  8.7220662542430472e-01  9.4118532347384753e-01  9.0598822626197573e-01  8.5297054698657637e-01  7.7676613554433926e-01  9.2706630232096598e-01  1.0377132891379974e+00  8.3329607450803589e-01  8.4130866704794760e-01  1.1043923976817136e+00  1.1011153258441291e+00  9.6432532897086964e-01  8.3615032074458084e-01  9.2388706606694526e-01  8.4487179717672900e-01  1.0745122508221270e+00  9.2012406420804649e-01  8.8861580945585461e-01  8.4785609825513231e-01  1.1047079455766280e+00  7.9604164976486924e-01  9.2690025692954015e-01  6.1143746018215861e-01  6.4370977117485184e-01  9.5131742490279647e-01  9.5096864158629490e-01  1.0999369341546736e+00  9.3914824716693657e-01  8.4478390929023095e-01  6.5076874348791225e-01  8.8755482893988169e-01  8.5686051909742578e-01  8.4654669353717493e-01  9.6144742491661872e-01  1.1063303492437635e+00  7.3598863377377222e-01  1.0472003076703555e+00  5.8991682510688548e-01  1.1015920319023684e+00  8.6541364070882476e-01  8.5695967885899504e-01  8.6617897136253597e-01  1.0396395766321775e+00  6.9993290289792276e-01  9.4080643538329456e-01  8.3545083834534184e-01  9.8546825930535409e-01  1.0999963952926759e+00  6.7095222496710150e-01  8.3412035623717251e-01  7.0378149307616178e-01  9.8841316001511870e-01  8.9658633855030023e-01  9.3242984738259349e-01  9.2153250811775911e-01  9.2972417513090633e-01  9.2140591416033724e-01  8.8209591356206540e-01  9.3013821003041364e-01  8.1459893058812971e-01  8.8498832368946212e-01  9.2673679064871828e-01  8.4448253945125584e-01  8.8332218508430971e-01  8.3503887712754488e-01  8.4355903266544807e-01  8.0511080565396309e-01  9.0189674384360874e-01  9.5955105921379891e-01  9.4416063222682622e-01  8.1015695894562889e-01  9.3034994243880764e-01  9.3760949387700643e-01  9.4118835124386580e-01  9.2743193370510812e-01  7.2973837728109403e-01  1.0621721800996764e+00  1.0448224296662878e+00  7.9179663359797658e-01  9.1529379300150238e-01  8.6809975782894244e-01  7.9013244182958875e-01  8.3985732513899247e-01  9.4170450754139601e-01  8.1746803705061211e-01  8.7611125074885732e-01  7.4090365385950185e-01  1.1096815808994041e+00  9.2627959584271324e-01  8.5469315336241602e-01  1.0503569944804396e+00  9.4475368396383663e-01  9.3393936260987465e-01  8.2519821719898678e-01  8.0837382601249097e-01  9.7294853167200923e-01  9.3790517298873988e-01  7.1222493699211142e-01  1.0131881318472367e+00  9.6530163208385855e-01  8.5903268283844691e-01  9.7828474846895364e-01  1.0832153543661884e+00  8.4694424883323793e-01  8.5911304363305263e-01  8.2568635531258683e-01  1.0559479135015875e+00  9.2964241651136803e-01  9.2561245417703686e-01  9.2742747562222427e-01  1.0117977561703744e+00  7.9731376782962393e-01  8.3239273562640315e-01  1.1052263333966672e+00  8.5500755896415648e-01  9.4493586620675096e-01  9.9934865623446822e-01  8.5938849939516337e-01  1.0139554650454154e+00  1.0943124740544277e+00  7.5887455690636929e-01  8.4387519215031792e-01  9.5962978859460757e-01  8.0574706747772051e-01  8.7999015092576094e-01  5.9375394353920485e-01  8.4477272364921985e-01  1.1168132310690007e+00  1.0890146528824136e+00  1.0792728974629417e+00  1.0949107581388051e+00  9.6078261219221939e-01  1.0807475559714508e+00  7.5019682359918061e-01  8.9924719973608513e-01  7.9498968034861817e-01  9.2947358265159563e-01  8.5089750246977980e-01  9.8299759030201528e-01  8.7135094386015766e-01  1.0060932515574195e+00  1.0970301640194517e+00  8.7182420659213744e-01  1.0995103392899559e+00  9.5214497065234660e-01  1.0729881864901929e+00  1.1125167856444180e+00  9.7707715116879312e-01  8.6055200617578287e-01  9.6947189384080468e-01  9.5955202506729986e-01  8.6276738281792664e-01  1.0924222313014071e+00  1.0245962344572477e+00  7.7605091431821993e-01  1.0803988644167737e+00  5.7802651846509734e-01  8.9191094055578668e-01  9.0979364268907137e-01  9.3287156255166537e-01  8.5160126447253282e-01  1.0127035301495024e+00  1.0557494626362420e+00  1.1019740428929754e+00  1.1074463041147984e+00  9.4693387287027830e-01  1.0301305866427120e+00  1.1159738334351144e+00  9.0435368102044067e-01  8.9155029070534875e-01  1.1017711804378589e+00  9.4233210130467049e-01  8.8793955678126690e-01  1.0658641901491708e+00  9.2116626227123988e-01  9.3022713876152685e-01  8.2065831743605877e-01  8.4999736806693071e-01  9.0156274778468282e-01  9.0968601024007600e-01  9.1587320963707175e-01  9.3343084992781278e-01  9.4725250145678253e-01  8.6481593640267618e-01  8.9921172950865713e-01  1.0411365132606569e+00  8.2198660460161443e-01  1.0670765385741414e+00  9.1493866964100479e-01  8.9398629355852854e-01  9.1330858423041417e-01  8.7927974621942573e-01  9.4209321389530898e-01  1.0413208213508807e+00  8.2576938325835958e-01  8.9152330551281589e-01  9.2195615673422182e-01  8.4721752919509608e-01  8.8554620971389852e-01  1.0444189957672358e+00  8.6655477538366221e-01  8.3651726602934251e-01  7.3502109613664046e-01  8.6572908961924699e-01  9.4441285811409359e-01  1.0717271623383327e+00  9.4346922451069093e-01  9.1895316570309793e-01  8.4132145863128527e-01  8.7838678796447545e-01  9.3353094475922593e-01  8.3924992914093399e-01  1.0111902225367824e+00  9.8956752345444376e-01  9.7528832157283785e-01  1.0876676740168583e+00  1.1153744608600586e+00  1.0745373366896536e+00  1.0247873431074546e+00  9.8880868016268697e-01  9.9609888198939356e-01  1.1071655560243256e+00  9.4166234641098900e-01  1.1155172992880671e+00  9.4137051700594121e-01  9.5506747951695115e-01  8.2027447974967416e-01  9.4836340238005956e-01  1.0876089777428548e+00  8.9854094887558900e-01  7.7433938018888970e-01  9.3663829125235554e-01  1.0276750981778522e+00  9.3703298264400259e-01  1.1059234680316681e+00  1.0671984403610693e+00  8.5034024761542504e-01  1.0842115125095879e+00  1.1004477672585513e+00  1.0680853739838398e+00  9.0940381160296702e-01  1.0808614854924594e+00  9.2143321596814309e-01  8.5585884480422048e-01  1.0666845497591484e+00  8.7087971429350020e-01  9.5925520828271238e-01  1.0092223999929684e+00  8.2396038203964228e-01  7.3360669531071243e-01  8.2440431355720656e-01  9.1316698678458941e-01  1.0529000360840655e+00  8.2051802752053782e-01  1.1010225434669763e+00  9.1057774522509205e-01  9.6241674308057190e-01  5.9681515689595444e-01  9.4868169576530503e-01  8.3942611969059922e-01  7.7204009132247631e-01  9.6734352782712818e-01  1.0134092430577146e+00  9.9067066886713784e-01  8.6501813383680137e-01  1.0099854604745948e+00  1.0617912576918487e+00  1.1001324708582407e+00  8.6446721754053513e-01  8.1294621923675514e-01  9.1140829727684547e-01  8.7583115801203626e-01  7.6045071491764471e-01  9.1137770462941781e-01  9.7016404757433761e-01  6.9225635968136268e-01  9.9174290663444586e-01  9.4584474707746979e-01  7.5916430143892855e-01  9.0510077028553182e-01  9.7358921452162284e-01  7.5212568347970632e-01  7.5515309729592939e-01  9.8989117101530033e-01  1.0503086429503516e+00  1.1074892043714868e+00  9.4136777335726651e-01  8.8202847979350851e-01  8.5339992045716939e-01  9.7462192419191285e-01  7.3367619134417905e-01  8.8978624524059358e-01  9.6873503055248866e-01  </DataArray> 
</PointData> 
</Piece>
</UnstructuredGrid>
</VTKFile>