<?xml version="1.0"?>
<VTKFile type="UnstructuredGrid"  version="0.1"  >
<UnstructuredGrid>
<Piece  NumberOfPoints="406" NumberOfCells="722">
<Points>
<DataArray  type="Float64"  NumberOfComponents="3"  format="ascii">-6 -2 0  -6 2 0  6 2 0  6 -2 0  -2.8 0 0  -1.2 0 0  -5.500000000001853 -2 0  -5.000000000003705 -2 0  -4.500000000005556 -2 0  -4.000000000007409 -2 0  -3.50000000000926 -2 0  -3.000000000011112 -2 0  -2.500000000012963 -2 0  -2.000000000014814 -2 0  -1.500000000016665 -2 0  -1.000000000018516 -2 0  -0.5000000000203677 -2 0  -2.204547655537681e-11 -2 0  0.4999999999796305 -2 0  0.9999999999814779 -2 0  1.499999999983327 -2 0  1.999999999985175 -2 0  2.499999999987029 -2 0  2.999999999988882 -2 0  3.499999999990735 -2 0  3.999999999992589 -2 0  4.49999999999444 -2 0  4.999999999996293 -2 0  5.499999999998147 -2 0  6 -1.500000000001387 0  6 -1.000000000002774 0  6 -0.5000000000041616 0  6 -5.505595979116151e-12 0  6 0.4999999999958384 0  6 0.9999999999972258 0  6 1.499999999998613 0  5.500000000001853 2 0  5.000000000003705 2 0  4.500000000005556 2 0  4.000000000007409 2 0  3.50000000000926 2 0  3.000000000011112 2 0  2.500000000012963 2 0  2.000000000014814 2 0  1.500000000016665 2 0  1.000000000018516 2 0  0.5000000000203677 2 0  2.204547655537681e-11 2 0  -0.4999999999796305 2 0  -0.9999999999814779 2 0  -1.499999999983327 2 0  -1.999999999985175 2 0  -2.499999999987029 2 0  -2.999999999988882 2 0  -3.499999999990735 2 0  -3.999999999992589 2 0  -4.49999999999444 2 0  -4.999999999996293 2 0  -5.499999999998147 2 0  -6 1.500000000001387 0  -6 1.000000000002774 0  -6 0.5000000000041616 0  -6 5.505595979116151e-12 0  -6 -0.4999999999958384 0  -6 -0.9999999999972258 0  -6 -1.499999999998613 0  -2.776753453941174 -0.1914525314286965 0  -2.708364820523325 -0.3717785376335722 0  -2.598808598538216 -0.5304981265911284 0  -2.454451797386757 -0.65838709271366 0  -2.283683909636528 -0.748012994147384 0  -2.096429344207466 -0.7941670992780535 0  -1.903570655798842 -0.7941670992788195 0  -1.716316090368095 -0.7480129941491368 0  -1.545548202616307 -0.6583870927157747 0  -1.401191401463757 -0.530498126593356 0  -1.291635179477527 -0.371778537635196 0  -1.223246546059047 -0.1914525314295925 0  -1.223246546058803 0.1914525314286035 0  -1.291635179476594 0.3717785376334188 0  -1.401191401461634 0.5304981265909601 0  -1.545548202612898 0.6583870927134221 0  -1.716316090363093 0.7480129941472402 0  -1.903570655792394 0.7941670992780367 0  -2.096429344201276 0.7941670992788055 0  -2.283683909631911 0.7480129941491347 0  -2.454451797383697 0.6583870927157729 0  -2.598808598536385 0.530498126593196 0  -2.70836482052258 0.3717785376349917 0  -2.776753453940975 0.1914525314295042 0  0.4588466633941945 0.2704149791022056 0  -4.424312812173863 0.2760319703992994 0  -3.803977598762586 -0.6841584599595646 0  -0.1330968762779425 -0.6798763971615133 0  2.451109587541276 3.169800318630399e-13 0  -3.563610936250569 0.5929994091167295 0  4.204753319582647 0.2820669554523581 0  -0.4390897559348154 0.6178095532273566 0  -3.041446812595122 1.175550440315544 0  -0.9622132806516797 1.132103015222783 0  1.069493318942931 -0.773608156980569 0  -4.924330687080279 -0.7127064269610045 0  -3.024693497948964 -1.195179289656404 0  -0.9648749555625579 -1.256854520022574 0  -3.443624282349383 -0.2044158249759613 0  -0.5611500783757608 -0.1747080110423833 0  1.60270880116926 0.7487034276124258 0  3.488352576142236 -0.8228939860777884 0  4.816375011670135 -0.8163750116689444 0  3.243628045085357 0.8578172796997985 0  -4.228632884234073 1.228069101636678 0  -2.365220384435482 -1.356128547810356 0  -1.637465979486354 1.3571687267915 0  -1.642380978561139 -1.359365080147485 0  -2.362988915989869 1.356737096243695 0  -5.134120367293631 0.8356299802910161 0  2.077496878467794 -0.9514080034522553 0  4.960859291178299 0.9608592911785537 0  0.3293120056474302 1.148965409695154 0  -5.157560560414062 0.09447106214747865 0  -3.14779387667392 -0.6330563038825547 0  -3.148134455585257 0.4354299640428653 0  -0.8464439673630421 0.4159277415926296 0  -0.9918125625721008 -0.7191748422889824 0  -4.355349213295776 -1.234510499778242 0  1.582074659164868 -0.06850205959954866 0  2.400584045214166 1.204278622181321 0  5.102831660739063 0.03453404176596848 0  4.083259768981113 1.154272958349666 0  -3.992394834362243 -0.1621022234411988 0  0.4290302718942113 -1.225465289645401 0  -3.681487986394671 -1.310544246656267 0  -3.640289698916164 1.187023654838123 0  0.468851680921228 -0.447055967952278 0  3.315209904217932 0.05667935655546536 0  -2.541160649745046 -1.046980928586996 0  -1.45196684542695 1.044189935346116 0  -2.000844595891861 -1.207983108473125 0  -1.453092202970521 -1.061139264918894 0  -2.000050543938391 1.207806685704176 0  -2.548033154566413 1.04418993534851 0  4.13054585796652 -1.232871249381608 0  -0.3301617095463629 1.221692405319566 0  -0.2880491989587189 -1.359626628407983 0  -0.0758941643813178 0.132275811829787 0  2.826389221580753 -1.233168480096227 0  -2.922070412327736 0.7575752117792038 0  1.003070890178416 1.271347915034201 0  -5.319521816151902 -1.310543894393663 0  -1.070407062963812 0.7877698545098388 0  -4.562499863038985 -0.2302396981426722 0  -3.164226661545047 0.07179577787350272 0  -0.9091377812900333 0.132454654016971 0  4.116029045943655 -0.4851826871817362 0  5.316659189209927 -1.316659189208741 0  -0.9498828454673396 -0.4149758979014553 0  -4.037769805263969 0.6896174350675625 0  1.431664772855882 -1.327784137638992 0  -3.646693623568034 0.1600006358878044 0  -2.878371345483476 -0.7910345833001061 0  1.062603041385242 0.2894765870627741 0  -0.547955103783681 0.1635272504420374 0  -4.804809838419659 1.41016301576038 0  -3.042895319571192 -0.3694931303482478 0  -4.59252578392403 0.792267765362792 0  2.823271260730033 -0.5472430318427347 0  -4.28575390662405 -0.7521491832384866 0  -0.5524005545121191 -0.9037367558558163 0  1.815219025072439 1.388812135783969 0  -1.288398729718543 -0.8178399475601057 0  -5.424388493366639 1.35375165044146 0  -2.256991952837567 -1.049538527273222 0  -1.739586738723494 -1.052327527873255 0  -1.738827359988536 1.050180627239116 0  -2.257795730428802 1.049701225145305 0  -0.62222340523776 -0.5483611729237363 0  2.065188519029698 0.5424877383589943 0  0.1055865106318892 0.7347782870471022 0  1.013082573993895 -0.2061877611231605 0  -5.428323520618333 -0.4386412085227075 0  5.374041502384443 -0.5304401760993408 0  3.435185060219232 -1.377658617395091 0  -3.302377238490527 0.8841390072780534 0  -0.9902123298072768 -0.124175295282554 0  0.7186958547669859 0.8724503317343631 0  2.941237214953417 1.390391532351976 0  4.708037787864423 -1.340276032051348 0  5.395029680982659 1.395029680983341 0  3.591022587550188 1.348260650408605 0  2.759385971589342 0.4857447325740718 0  -0.6832705231418494 0.8879387563573758 0  5.437781298507145 0.5981501503262471 0  -2.698603003287285 1.617130043745112 0  -3.463358189947519 -1.013588318179017 0  1.710866040171871 -0.6978716337870808 0  3.642182982762737 0.4555704362064124 0  -2.699802128031161 -1.618310703146212 0  -1.3020054856637 1.619819977935582 0  -2.000000000004996 -1.566396763829867 0  -1.999999999994794 1.566396763830688 0  -1.247812462071684 -1.595232739507426 0  4.59429106759859 1.420052135572917 0  0.9448382581152466 -1.440259145469251 0  -0.116376100998861 -0.2606209011258676 0  -4.774521510507792 0.4245390872783272 0  -2.983910172370106 -0.1208000607277856 0  -3.353983741142061 1.576062863985777 0  -5.473352579109997 0.4917619255280954 0  -4.828650470275986 -1.493148538517745 0  4.639973657165532 -0.2833178611094909 0  -2.660279445404468 0.7699932347178977 0  -1.335045190775955 0.7744876666923373 0  -3.395669172689978 0.2584951122361346 0  2.279110606119369 -1.465899541383697 0  4.734317729212562 0.4520963557364723 0  -0.6334913028224612 1.584213953723378 0  2.121854101359879 -0.4289611127787379 0  -3.474459720833238 -0.4977581316675216 0  -1.066539898844178 0.3411379476537602 0  -3.361849707555382 -1.611428512420182 0  -4.099039818938317 0.3306400369415774 0  -2.935324777364672 0.354721898811665 0  -3.973578595052027 1.482940358734671 0  3.784450148635689 -0.0702780807301525 0  -1.191348122671212 -0.5614501189722798 0  -2.838672605956353 -0.5493179047027598 0  -1.184983441257359 0.5617520886612424 0  -2.811184099847449 0.5574240755049175 0  0.2702752249355158 -0.8003643570420809 0  -0.6945947797857237 -1.593893965175195 0  0.001175881878679056 1.504521009023778 0  0.6072931735145096 1.501814722697789 0  -3.991896293645949 -1.047264188412552 0  -3.734097395159253 -0.3261671578666079 0  -5.539652387691843 -0.8857154182585802 0  -4.395061924111849 1.563293728588296 0  0.2258327611651416 -0.08745142624872881 0  -3.774816634825771 0.8676973328379478 0  2.208484493569073 1.6256686312487 0  0.1309939514660535 -1.566169703482512 0  -5.551414360955331 0.9459842275970113 0  -4.04734138658365 -1.51163984963472 0  -4.947145019546805 -0.3299925153029702 0  4.320410447198621 0.6970857582435144 0  -4.707557346727139 -1.000565649857444 0  1.353711468973986 1.582551234446199 0  1.674156483558973 0.3266252271732694 0  -4.039105552973997 -0.4537604746027087 0  0.01051727619263377 -1.088858357362194 0  -0.2234942609176301 0.8619127912343982 0  -2.95903482691863 0.1219373374385197 0  -4.682467695920681 0.0804575682243254 0  5.535750224195656 -0.1525732643419722 0  -4.290083947414376 -0.0005258314026840717 0  1.136102562417988 0.7655312464039168 0  -2.816589394567214 0.9927597419785312 0  -2.645374456162409 -0.7645902451387543 0  4.18414576655837 1.624276131878667 0  0.7127337088822223 -0.9006358935856398 0  1.972418102153911 0.9727040774616764 0  -2.42199174813501 0.8591219219254587 0  -2.418604734200992 -0.8552987735117754 0  -5.573597213364169 -0.03612430678117123 0  2.024792870869397 0.05574071630590883 0  -1.578875191508968 0.861424470724936 0  -1.54706008231699 -0.8630049102346303 0  3.848662181064435 -1.569601980075533 0  -2.000000000003871 -0.9746445732264465 0  -1.99999999
[...]
<PointData  Scalars="f_24"> 
<DataArray  type="Float64"  Name="f_24"  format="ascii">-5.9392339973768771e-01  -5.9392339973768771e-01  0.0000000000000000e+00  0.0000000000000000e+00  -9.2538746138422678e-01  -4.1941475862952417e-02  -5.9856886266569376e-01  -6.0231279768814727e-01  -6.0520488412976281e-01  -6.0623443262570498e-01  -6.0349373372052362e-01  -5.8662273653412134e-01  -5.4554060568153073e-01  -4.3050546351037877e-01  -2.6830345210858830e-01  -1.2609708717659099e-01  -4.1344548746290885e-02  1.9467135956468436e-03  2.1392366146540442e-02  2.9706669647156871e-02  3.2844556338406314e-02  3.2245421710732837e-02  3.0410738752017767e-02  2.7196369639587936e-02  2.3613659217227641e-02  1.9297114158749479e-02  1.4743329110156918e-02  1.0070537447700423e-02  4.8940856556234525e-03  0.0000000000000000e+00  0.0000000000000000e+00  0.0000000000000000e+00  0.0000000000000000e+00  0.0000000000000000e+00  0.0000000000000000e+00  0.0000000000000000e+00  4.9059285029798795e-03  9.9970247460025915e-03  1.4907370451375905e-02  1.9265586083716167e-02  2.3603221027432827e-02  2.7319985630752733e-02  3.0387387319069939e-02  3.2396570150796819e-02  3.2480871989771613e-02  2.9802710930800225e-02  2.1414650310672551e-02  1.3055336776284336e-03  -4.0195483187098785e-02  -1.2729096120947780e-01  -2.6712227556485818e-01  -4.3069218285683103e-01  -5.4558336317476352e-01  -5.8638998541489307e-01  -6.0363130206512783e-01  -6.0611873945924366e-01  -6.0540749124500337e-01  -6.0237317515959410e-01  -5.9857530233393952e-01  -5.9392339973768771e-01  -5.9392339973768771e-01  -5.9392339973768771e-01  -5.9392339973768771e-01  -5.9392339973768771e-01  -5.9392339973768771e-01  -5.9392339973768771e-01  -9.1355772713124328e-01  -8.8333634898586522e-01  -8.1717382665895189e-01  -7.1428164399995486e-01  -5.9110190685057229e-01  -4.4790276691857811e-01  -3.0745941994873793e-01  -1.8837594468139660e-01  -1.1196214478248567e-01  -7.0388273326987411e-02  -5.2817454167171263e-02  -4.4372518342882319e-02  -4.4442841554150236e-02  -5.2729958264129830e-02  -7.1475937567119854e-02  -1.1111981512332449e-01  -1.8785663058798230e-01  -3.0763871350084909e-01  -4.4787076582263013e-01  -5.9054223111200221e-01  -7.1521698179431659e-01  -8.1615853037498676e-01  -8.8070804021364635e-01  -9.1522868411696656e-01  5.2532924127995373e-03  -6.2016295510500541e-01  -6.2933448519395763e-01  -1.6969893327768312e-02  2.5440925390053843e-02  -6.4877829336219306e-01  1.6185828403284905e-02  -3.3743350610088992e-02  -5.9520031538510865e-01  -1.1724018526457078e-01  2.1117817218054967e-02  -6.0594097917036216e-01  -5.9227119323262223e-01  -1.2505269317148743e-01  -6.9188158828308566e-01  -3.3625807113196071e-02  2.5953887847992008e-02  2.1951512697172635e-02  1.1215153215147577e-02  2.3636126066959712e-02  -6.0597678610933559e-01  -5.1864462547949219e-01  -3.2073225240140224e-01  -3.2239349337777606e-01  -5.1815435856148762e-01  -6.0280586348606136e-01  2.7924389203585885e-02  9.9959964988723914e-03  5.4411930607453397e-03  -6.0525269185727926e-01  -6.8125307105152932e-01  -7.2094389690289229e-01  -5.2398019204228340e-02  -8.3608924496382381e-02  -6.0547880824742395e-01  2.3440859658288012e-02  2.8348599893356675e-02  8.3863797593138455e-03  1.7905492688357585e-02  -6.3975203878045728e-01  9.5453346564103349e-03  -6.0147766619487109e-01  -6.0419311549095778e-01  6.1240207349514096e-03  2.2214652234923988e-02  -5.9245090080984053e-01  -2.2629827696923238e-01  -4.4512539578797644e-01  -2.2894215592837239e-01  -4.4486696988914814e-01  -5.9444622509573852e-01  1.7544502854646302e-02  -3.4809273898457768e-02  -3.1282148523410325e-02  -1.3254929580001185e-02  2.6679900374657610e-02  -6.7812497737580912e-01  2.3308478155007237e-02  -5.9968819257794392e-01  -1.0239265032241461e-01  -6.1673692205994413e-01  -7.5871323371128530e-01  -4.4035014026084979e-02  1.6991282772145216e-02  6.6313140334282872e-03  -5.6442611799340257e-02  -6.2232778888809737e-01  2.8139464361832546e-02  -6.6786648034825125e-01  -6.7169568271171476e-01  1.8264991933863054e-02  -3.3083006870508774e-02  -6.0294179268818993e-01  -7.6021636310097707e-01  -6.0958822509899213e-01  2.5064410465108270e-02  -6.1470254298776572e-01  -4.9935224002248813e-02  2.9616919941934172e-02  -1.3530816772361931e-01  -5.9881314750387393e-01  -5.3978295929595976e-01  -3.2831326790194409e-01  -3.2749791563339553e-01  -5.3993834287300757e-01  -4.3552119607101800e-02  2.6425028219409542e-02  -5.5536127348859397e-03  1.7231726459862547e-02  -6.0040718951244276e-01  5.9477986434824251e-03  2.3173440893477400e-02  -6.3138641442518062e-01  -4.4848390501666439e-02  1.5328001346167630e-02  2.6359570692887972e-02  1.2493856414544242e-02  5.9688354191676741e-03  2.1952375931135765e-02  2.5207190424874029e-02  -6.2266226632121516e-02  5.4031314162311279e-03  -5.4626205319033005e-01  -6.1428194664736457e-01  2.6285521680419928e-02  2.0447085847317567e-02  -5.4641995299227775e-01  -2.1773272206960129e-01  -4.2551412743902256e-01  -4.2548972602915808e-01  -2.0109569756690870e-01  1.3632882076551466e-02  2.3608787992073044e-02  -1.5013426664413673e-02  -6.1061832094716484e-01  -8.2427131379719021e-01  -5.8883264612041297e-01  -5.9995077107045702e-01  -6.0253849024564865e-01  1.2528631002656256e-02  -6.9401655694179598e-01  -1.3135795640201733e-01  -6.9408682365976415e-01  2.9455339204012169e-02  1.1796750660822305e-02  -7.3667432261262017e-02  2.6128691777372825e-02  -6.6462403076416920e-01  -5.3422865692316815e-02  -5.8987831047494410e-01  -6.3141151359916325e-01  -7.9963817412265870e-01  -6.0236030260104112e-01  1.9240801831859961e-02  -7.7324142548316058e-02  -7.6306924809867305e-01  -7.6717286661482711e-02  -7.6811905777215361e-01  1.5541486560247050e-03  -8.1356705964513998e-02  -9.9361165805126467e-03  1.6403957658729082e-02  -6.1013907725758021e-01  -6.5326017628767463e-01  -5.9839675957274763e-01  -6.0385703304040694e-01  -2.1835411669456420e-03  -6.2054311270465834e-01  3.0101110978458211e-02  -1.1653858751795275e-03  -5.9826701627111389e-01  -6.0288518602928798e-01  -6.0804014736096623e-01  1.5504820999969176e-02  -6.0568732172088113e-01  2.8708589850141644e-02  2.4603675683806642e-02  -6.3057440547477972e-01  -9.8755451385619010e-03  -2.2580563599011158e-02  -8.3652745945031892e-01  -6.1424540545927575e-01  4.3788093309916473e-03  -6.2652104462942515e-01  2.1883022314011319e-02  -6.1991352912333031e-01  -6.9605011311943299e-01  1.7436029208871953e-02  1.5378651831244932e-02  2.8083015347905887e-02  -6.3206660757384836e-01  -6.3149377416951979e-01  -5.9880282022887732e-01  2.5384873427773319e-02  -2.0473384937424274e-01  -1.9703364043245264e-01  2.0077154974811821e-02  -4.2894144966678965e-01  -4.2889832293600749e-01  -5.6888792090258999e-01  2.1003143546665905e-02  -1.5670390609586762e-01  1.0537550251793766e-02  3.9138466583609694e-03  4.0328165195242802e-03  2.6074298180069618e-02  -2.0000465688258176e-01  -1.4560481265399822e-01  2.7022930479184030e-02  1.5122261098099415e-02  1.6641704039564120e-02  3.0540335482748201e-02  -4.7827883737971387e-03  -7.0775300637424432e-01  2.4267037065501894e-02  -5.6828604498479340e-01  -6.7416808167917153e-01  1.8928134357197705e-02  2.2734320379430011e-02  9.8105249054328027e-03  -2.3912071628694530e-02  -1.5496944379778711e-02  -3.9862309187578618e-02  -2.0900515667276331e-01  2.7876682497908117e-02  -6.2623506491442704e-01  1.7968988652297301e-02  -6.4472024364790992e-01  -5.9757333959921244e-01  2.3284790721488449e-02  -4.3939979790505984e-02  -6.0457407303207389e-01  -6.0122880762694619e-01  -6.4507309418042946e-02  -6.0396924017002551e-01  2.4667344632539581e-02  -5.9652906546712833e-02  2.8699597823577946e-02  -4.9196238179682739e-01  -3.3299735499442712e-01  -3.3100601107651512e-01  -4.9187210715365870e-01  2.7116153521099425e-02  -5.9537932078736888e-01  2.4939577907315720e-02  -7.6050099583564151e-02  3.9036928866555591e-03  -6.0231287959229807e-01  -7.6504530265899018e-01  -6.0024232948801748e-01  1.5876030024241223e-02  2.2320118410551676e-02  1.3671828341401630e-02  -6.7608397313254875e-01  1.4917941873566022e-02  -6.0072455047572748e-01  -6.1217440508644472e-01  -6.0030565148165271e-01  -7.0401790008200438e-01  -7.4085093971240235e-01  -4.2051301009636416e-03  1.9958241935197362e-02  -4.0225950152694506e-02  2.5662861933354843e-02  -6.1740476932113675e-01  -2.8863485864913559e-02  -4.4029034125413757e-02  4.0069433026976341e-03  9.2274168165718193e-03  -5.2244511513334951e-02  -3.2109124548289653e-02  9.1200712600866610e-03  2.5703427134632532e-02  -6.0156775918999039e-01  2.8522938344940341e-02  1.3404476184549607e-02  -6.6704399609464549e-01  -6.0962423310438296e-01  -5.9672118148971931e-01  -8.2141241592587677e-02  -6.1137989993548181e-01  7.9753186380277820e-03  1.2951955927013332e-02  -8.3621479627911310e-01  -2.5390607647236274e-02  6.0474844801031678e-03  2.4774730545760744e-02  -5.9719577292140180e-01  2.0696473959313195e-02  1.5537760649964991e-02  -5.9884393719240170e-01  -6.0944485540509041e-01  -6.0473520536899716e-01  3.4499312483965662e-03  -4.1398526796528237e-02  2.5661276919566576e-02  2.6837013793959436e-02  -2.5919128604910743e-02  2.0343189204999130e-02  -7.2803364711124419e-01  2.3458542501019652e-02  -1.1676183878861383e-02  -5.9634157175015168e-01  -6.8144370463727497e-02  -5.7472937405184443e-01  -6.4578161761010855e-01  -6.2365955870331302e-01  2.9083947756075559e-02  2.0439873511647406e-02  -1.3359142963449114e-01  2.8627325929681674e-03  -5.9666480329383520e-01  -6.0258969774887694e-01  3.1118532158828847e-02  -6.3820764596342272e-01  -6.2858663557387873e-01  -6.0317737748750500e-01  8.5676906369680159e-03  -6.2533298435489737e-01  -6.1631832901547190e-01  -6.0533469266188067e-01  1.8354487602531985e-02  2.5936969505857010e-02  8.6145144427301947e-03  -1.0925194452171709e-01  -5.7451575369006413e-01  -3.3742863804846451e-02  -2.6833889431850846e-02  -6.0663703672929792e-01  2.4165317165140421e-02  -5.3455639434995439e-01  -5.3414954208717391e-01  -2.8760562662668093e-01  -2.8543484682208281e-01  2.2630029165605178e-02  2.5165776311346207e-02  </DataArray> 
</PointData> 
</Piece>
</UnstructuredGrid>
</VTKFile>