<?xml version="1.0"?>
<VTKFile type="UnstructuredGrid"  version="0.1"  >
<UnstructuredGrid>
<Piece  NumberOfPoints="622" NumberOfCells="1116">
<Points>
<DataArray  type="Float64"  NumberOfComponents="3"  format="ascii">-6 -2 0  -6 2 0  6 2 0  6 -2 0  -2.8 0 0  -1.2 0 0  -5.500000000001853 -2 0  -5.000000000003705 -2 0  -4.500000000005556 -2 0  -4.000000000007409 -2 0  -3.50000000000926 -2 0  -3.000000000011112 -2 0  -2.500000000012963 -2 0  -2.000000000014814 -2 0  -1.500000000016665 -2 0  -1.000000000018516 -2 0  -0.5000000000203677 -2 0  -2.204547655537681e-11 -2 0  0.4999999999796305 -2 0  0.9999999999814779 -2 0  1.499999999983327 -2 0  1.999999999985175 -2 0  2.499999999987029 -2 0  2.999999999988882 -2 0  3.499999999990735 -2 0  3.999999999992589 -2 0  4.49999999999444 -2 0  4.999999999996293 -2 0  5.499999999998147 -2 0  6 -1.500000000001387 0  6 -1.000000000002774 0  6 -0.5000000000041616 0  6 -5.505595979116151e-12 0  6 0.4999999999958384 0  6 0.9999999999972258 0  6 1.499999999998613 0  5.500000000001853 2 0  5.000000000003705 2 0  4.500000000005556 2 0  4.000000000007409 2 0  3.50000000000926 2 0  3.000000000011112 2 0  2.500000000012963 2 0  2.000000000014814 2 0  1.500000000016665 2 0  1.000000000018516 2 0  0.5000000000203677 2 0  2.204547655537681e-11 2 0  -0.4999999999796305 2 0  -0.9999999999814779 2 0  -1.499999999983327 2 0  -1.999999999985175 2 0  -2.499999999987029 2 0  -2.999999999988882 2 0  -3.499999999990735 2 0  -3.999999999992589 2 0  -4.49999999999444 2 0  -4.999999999996293 2 0  -5.499999999998147 2 0  -6 1.500000000001387 0  -6 1.000000000002774 0  -6 0.5000000000041616 0  -6 5.505595979116151e-12 0  -6 -0.4999999999958384 0  -6 -0.9999999999972258 0  -6 -1.499999999998613 0  -2.796147781337886 -0.07841371226233997 0  -2.784628224322852 -0.1560722576115546 0  -2.765552268586196 -0.2322277418021561 0  -2.739103626009626 -0.30614674589063 0  -2.705537011479457 -0.3771173894593519 0  -2.665175689843037 -0.4444561864141836 0  -2.618408362691456 -0.5075146273293722 0  -2.565685424950688 -0.5656854249477874 0  -2.507514627332613 -0.6184083626887972 0  -2.444456186417533 -0.6651756898407991 0  -2.377117389462776 -0.7055370114776264 0  -2.306146745894456 -0.7391036260080417 0  -2.232227741806235 -0.7655522685849585 0  -2.15607225761588 -0.784628224321992 0  -2.078413712266957 -0.7961477813374315 0  -2.000000000003407 -0.7999999999999998 0  -1.921586287739523 -0.7961477813380696 0  -1.843927742389945 -0.7846282243231506 0  -1.767772258198879 -0.7655522685865098 0  -1.693853254109962 -0.7391036260098718 0  -1.622882610540873 -0.7055370114795768 0  -1.555543813585629 -0.6651756898429115 0  -1.49248537267008 -0.6184083626910072 0  -1.434314575051535 -0.5656854249500112 0  -1.381591637310384 -0.5075146273316149 0  -1.334824310158267 -0.4444561864161359 0  -1.294462988521423 -0.3771173894609975 0  -1.260896373990956 -0.3061467458920351 0  -1.234447731414138 -0.2322277418032578 0  -1.215371775677287 -0.156072257612254 0  -1.203852218662147 -0.07841371226267954 0  -1.203852218662115 0.07841371226235888 0  -1.215371775677132 0.156072257611478 0  -1.234447731413795 0.232227741802127 0  -1.260896373990353 0.3061467458905811 0  -1.294462988520456 0.3771173894591898 0  -1.334824310156812 0.444456186413959 0  -1.381591637308413 0.5075146273292139 0  -1.434314575049147 0.5656854249476236 0  -1.492485372667197 0.6184083626886415 0  -1.555543813582104 0.6651756898405565 0  -1.62288261053673 0.7055370114773629 0  -1.693853254105125 0.7391036260078683 0  -1.767772258193396 0.7655522685848468 0  -1.84392774238373 0.7846282243219146 0  -1.921586287732977 0.7961477813374253 0  -1.999999999996558 0.8 0  -2.078413712260516 0.7961477813380661 0  -2.156072257610207 0.7846282243231205 0  -2.232227741801178 0.7655522685864928 0  -2.306146745890059 0.7391036260098632 0  -2.377117389459098 0.7055370114795929 0  -2.444456186414405 0.6651756898428894 0  -2.50751462732998 0.6184083626909587 0  -2.565685424948549 0.5656854249499272 0  -2.61840836268981 0.5075146273313792 0  -2.665175689841831 0.4444561864159886 0  -2.705537011478692 0.3771173894607835 0  -2.739103626009108 0.3061467458918818 0  -2.76555226858589 0.2322277418031643 0  -2.784628224322724 0.1560722576122001 0  -2.796147781337853 0.07841371226267957 0  0.6720367661319522 0.1312687487860887 0  -4.389489086394485 0.3544472233398538 0  -3.816221554046232 -0.6097988664512611 0  -3.552726516474419 0.9342959806851625 0  -0.2536610443052337 0.8162373554653355 0  -0.1843238977799138 -0.6649951410982842 0  -3.613359951620445 0.1086570650978273 0  -3.146954163409593 -1.074378179335012 0  -0.4255266515582625 0.07734891565364931 0  -0.9413731612925856 1.168014724254929 0  -2.947764053183577 1.200029094390044 0  -0.8319852757411681 -1.058626838707328 0  2.675418990747819 -1.137325591670363e-12 0  -2.602010642259726 -1.287560129290477 0  -2.334401622060699 1.335006108940604 0  -1.524718496628401 1.32890816230333 0  -1.369813829148039 -1.26145150481762 0  -3.294065651892671 -0.4630240940010318 0  -2.072749204569071 -1.388981302138359 0  -0.7546165313921411 0.5601792161340381 0  -3.224879719581335 0.4382689715877901 0  -0.7073137361349826 -0.4625305410752652 0  4.326242945813966 0.3262429458150917 0  -3.187880061217201 0.07437712177460168 0  -2.94792024259867 0.7030255657465158 0  -2.678809277907896 0.9152683582887104 0  -4.911626141576894 -0.5700186648601188 0  -2.980647654587299 -0.5685006168686053 0  -2.769438919323564 -0.8202775213660614 0  -1.936950121013948 1.220669938589229 0  -0.8971643766260747 0.2762459428874499 0  -0.8760878018253068 -0.06836412137772707 0  -1.086827485441145 0.6772548942594016 0  -1.31355927028917 0.8808768148414213 0  -1.034266382739347 -0.5912381576649568 0  -1.241594139118264 -0.836771920085274 0  1.667161185638911 -0.6367996576268693 0  1.778189842800902 0.7191719841256095 0  -3.065106827511819 -0.266795371500425 0  3.714311277362231 -0.7275465302492842 0  -1.728329421201519 -1.09954751473283 0  4.870629493137888 -0.7325040699186681 0  -3.024707894719303 0.2567561910603656 0  -4.375540207252226 1.228935704312058 0  -2.272077148001781 -1.086192861256262 0  3.351408248797803 0.9175227128129597 0  -5.141847419540732 0.8091901960109126 0  0.5769368286199241 1.111816231125821 0  0.7411482978492124 -1.079569101289617 0  -1.074013749991219 0.430231207546053 0  -1.04664573441257 -0.3358382377487088 0  -2.439195336951085 0.9224778883059374 0  -2.902607676587358 0.4360473765597399 0  -1.629450174302152 1.035617385691805 0  -2.146859933125513 1.032375363966426 0  2.587625196444542 -0.9999926061845814 0  -2.529286802957126 -0.8830616815739111 0  -1.493798157676768 -0.8794705728517196 0  -1.932158132383022 -1.026681566564148 0  -4.09956359341904 -0.1372485582942864 0  5.055802064425553 1.050933510837308 0  -4.413659685984891 -1.207626391697488 0  -4.961411026474009 0.1201902955685026 0  -3.771151641156835 -1.303594976371997 0  -3.001321503506133 -0.04919177107285733 0  -3.881733605683001 0.5124517634812003 0  -0.1971627317996802 -1.336445372382849 0  -2.742825060181767 0.6732573903735507 0  2.520439429199979 1.129372838786189 0  -1.026326428668429 0.1384273198437734 0  -2.779290004861729 -0.5844691722665721 0  -2.895095740820851 -0.4261289730972082 0  -1.275682076193407 0.6630703172777138 0  0.1045291701958869 0.3433373435296472 0  5.175560481258801 0.0608563229178163 0  -1.211574424201636 -0.5847362589868093 0  -1.85847006217035 1.007917631940711 0  4.152535916385823 1.131901130662082 0  -1.04878257200685 -0.1253529988863012 0  1.432836501626023 0.05634449574318775 0  3.560672936003603 0.01188897172456759 0  -3.351823698389408 -0.1821329582635926 0  -5.145153363200735 -1.259166339382508 0  0.03473693330309885 -0.1724947236036572 0  -4.377830921337186 -0.6172564090242229 0  -0.3943750728122595 1.410897156959435 0  -1.661073679471639 -0.9342065000197183 0  -1.49086536677686 0.8331714487926741 0  -2.584486130952032 0.7871482690034864 0  4.270535884593893 -1.259607924744415 0  -1.757417028085795 -1.505182186951191 0  -3.430586920998477 1.425579221231371 0  -2.917598827418652 -0.2298465409534677 0  -2.328978331116049 -0.9300959620317677 0  -2.148543000691344 -0.9751580214451921 0  1.002654111360038 -0.4521702885594788 0  -4.628651824080903 -0.1127998710567241 0  -2.948904386702482 0.1555943115410545 0  0.4165242577134774 -0.5629432649478633 0  -3.698137692471105 -0.3173027948676715 0  -3.491400684461791 -0.7926319721650269 0  -0.3844454817728994 0.4680628696134375 0  -3.207830713508533 0.9778749990559993 0  3.229909751065535 -1.326302454776001 0  5.330007715336748 -1.312905173261894 0  -2.649214054100534 -0.713314536278899 0  1.342022964818772 -1.328315248672686 0  -2.556460939068198 1.202372762828344 0  -0.3497819755044588 -0.3080427614060888 0  -4.928440909495523 1.387622767511967 0  1.309170811945155 1.337467055109531 0  -1.352031940181449 -0.7151198948590243 0  -0.6132855723904642 0.9519045895123004 0  4.266838388406324 -0.3707357390867402 0  -3.834389788310238 1.371594798941152 0  -1.187890214580146 0.4851427123079557 0  -1.109118888029193 0.3185947354467283 0  0.1837819401738013 1.234799661476361 0  1.108165254659559 0.6237223548284967 0  -0.5266600156584522 -0.8113991260886402 0  -4.643822083543982 0.7834094684931707 0  -1.146235204666366 -0.4027330721405781 0  2.049029845992713 -0.2664662499985428 0  2.002665761665898 -1.328912351029848 0  -1.678783505586872 0.8978832065736417 0  -2.049499525232052 0.9483890761590005 0  -2.229972236535132 0.9181006323151361 0  -3.033763529945482 -1.54240494280775 0  -3.562344364746847 0.5622550957224539 0  -5.524396842903405 -0.2709714867672603 0  -0.9710982764034376 -1.549038578476423 0  3.058819320130555 -0.5375106252795963 0  -4.170365230099585 0.7342553699229977 0  -1.045878746461381 -8.187420622554697e-05 0  -1.864822945411764 -0.9219031104673102 0  -0.6251005091687033 -0.2120650512195049 0  2.317562622406059 0.4886417799113238 0  -0.6674371191466613 0.1483993095055008 0  -2.705757882979874 1.609712312948224 0  
[...]
<PointData  Scalars="f_24"> 
<DataArray  type="Float64"  Name="f_24"  format="ascii">9.9999997639336746e-01  9.9999997639336746e-01  9.9999997639336746e-01  9.9999997639336746e-01  4.9558155727578990e-01  8.6038280639729814e-01  9.8619492996585889e-01  9.7311173683294538e-01  9.6072431860220264e-01  9.5119908578077472e-01  9.4483099661765269e-01  9.4292889617439835e-01  9.4143094646471737e-01  9.2697948321289303e-01  8.8736552736270835e-01  8.4640622074617444e-01  8.8380491177230247e-01  9.9197283131485858e-01  1.0784688050549547e+00  1.1068549938982364e+00  1.1119227169373080e+00  1.1095411239323536e+00  1.1026027691503533e+00  1.0912057703608875e+00  1.0776629668628652e+00  1.0612010897758906e+00  1.0468308549776915e+00  1.0299684175713686e+00  1.0159159040035288e+00  9.9999997639336746e-01  9.9999997639336746e-01  9.9999997639336746e-01  9.9999997639336746e-01  9.9999997639336746e-01  9.9999997639336746e-01  9.9999997639336746e-01  1.0157678674656865e+00  1.0302171287113417e+00  1.0467331062454843e+00  1.0608525738317973e+00  1.0772537799270043e+00  1.0916868194627158e+00  1.1015811623382645e+00  1.1093848916688944e+00  1.1114221885889874e+00  1.1066971815963567e+00  1.0783389731106710e+00  9.9704823467436021e-01  8.8881245227714500e-01  8.4878007209684769e-01  8.8872755168914996e-01  9.2561022847761421e-01  9.4075049045713888e-01  9.4186106099747602e-01  9.4420351702333027e-01  9.5010277548831457e-01  9.6055334459485808e-01  9.7243132374811125e-01  9.8560654492321376e-01  9.9999997639336746e-01  9.9999997639336746e-01  9.9999997639336746e-01  9.9999997639336746e-01  9.9999997639336746e-01  9.9999997639336746e-01  9.9999997639336746e-01  5.0022744837517841e-01  5.1421341613290061e-01  5.2545189326032293e-01  5.5200930516285729e-01  5.7636398532101563e-01  6.2032326813758143e-01  6.3887215270193987e-01  6.8478266735591720e-01  6.9932435753094524e-01  7.5026057836946358e-01  7.7517585681646251e-01  8.3194470117781028e-01  8.6209072291357491e-01  9.0589227908103076e-01  9.3559968393136173e-01  9.6278871485805329e-01  9.8115891030192304e-01  9.8112273054347898e-01  9.6880534077551472e-01  9.4783845677224665e-01  9.2262245503307616e-01  8.9790323329864064e-01  8.7826635083044680e-01  8.6345614847009833e-01  8.5501235910573670e-01  8.5055364675024847e-01  8.5037535310697887e-01  8.5196227896398069e-01  8.5490541925743258e-01  8.5767636217156251e-01  8.5967301122396567e-01  8.5972003895032023e-01  8.5780679424361062e-01  8.5502114951422947e-01  8.5233321852176602e-01  8.5019763921704372e-01  8.5075441865312096e-01  8.5451168476130734e-01  8.6307522877054432e-01  8.7752042760965054e-01  8.9746955143368390e-01  9.2223841466517209e-01  9.4871395881842235e-01  9.6934309078035319e-01  9.8281872569146778e-01  9.7936054409252982e-01  9.6501215508200733e-01  9.4062118398832928e-01  9.0309079870528852e-01  8.7808496219976417e-01  8.3609429304748462e-01  7.8321297254023059e-01  7.3193433523054152e-01  7.1988767817589561e-01  6.6541380643926562e-01  6.4361683977319029e-01  6.1553430675866216e-01  5.8208870291303838e-01  5.4849430621635964e-01  5.3664132590425784e-01  5.1090905139720555e-01  5.0174263460865587e-01  1.0525943318080455e+00  9.4097962868010976e-01  9.1690404873367504e-01  9.2142379027562415e-01  8.9201368538373782e-01  9.3198298514128286e-01  8.8127119238962925e-01  9.2644595803693586e-01  9.1478098948603104e-01  7.4570487621872283e-01  9.3575902679724365e-01  7.3175659884228728e-01  1.0910051007510868e+00  9.4752258024406566e-01  9.4512234830561737e-01  8.8144281211522724e-01  8.4545942124526496e-01  8.6041011632631348e-01  9.3902554770256685e-01  8.4129477470148173e-01  8.4380430423995523e-01  8.5822307194355041e-01  1.0507164708005994e+00  7.9382977042431813e-01  8.6055744661948796e-01  9.0516301486420148e-01  9.6392666694301554e-01  8.2628974454412640e-01  8.8243800815282603e-01  9.2804307100561878e-01  8.6184575048164624e-01  8.7009687753815812e-01  8.2381485250611219e-01  8.5052835572181507e-01  8.3100189496912991e-01  8.3400100697378055e-01  1.0924339200642619e+00  1.0938724599410350e+00  7.6854591283433027e-01  1.0689897234595349e+00  9.2430825337183287e-01  1.0345718969947986e+00  7.4984427262168007e-01  9.5359100225058824e-01  9.3092251961771932e-01  1.0796409758503258e+00  9.7296473069523226e-01  1.0776533253208089e+00  1.0869017564046526e+00  8.4735929752322781e-01  8.5288970835039524e-01  9.0135166960685431e-01  7.5796976533310223e-01  9.1718134705991861e-01  9.2056468700542782e-01  1.0946321219067190e+00  8.9396949427765005e-01  9.0180631745167406e-01  9.2745620089371916e-01  9.2308438023354666e-01  1.0289767380492898e+00  9.5490521155122665e-01  9.6397896312151321e-01  9.4273182539264144e-01  7.0572120862951171e-01  9.1724985011831028e-01  8.8699543553141524e-01  8.2331335504320224e-01  1.0963326784736258e+00  8.6162255683213496e-01  7.8494070958490281e-01  7.4885902043739028e-01  8.4744332393427868e-01  9.9220240172502139e-01  1.0251010175158097e+00  8.4320147443791016e-01  9.3215875262111769e-01  1.0564585449434649e+00  8.6112119319714098e-01  1.0857653524339286e+00  1.0727943397394260e+00  8.4228388051758141e-01  9.7533835990623508e-01  9.8088642913559043e-01  9.4399462130385059e-01  8.3279836191630641e-01  9.3162353581052126e-01  8.9775934401212121e-01  8.5724612972695535e-01  1.0531751149152797e+00  9.1650173202091034e-01  9.4139635853031645e-01  6.8349375827669501e-01  9.0048329015670403e-01  9.1274713043493927e-01  1.0777957140079597e+00  9.5036241522127229e-01  6.8286470805316768e-01  1.0384514101020323e+00  8.9602262427609847e-01  9.1029179266699745e-01  9.0508854477469280e-01  9.1650562833092153e-01  1.0842983638929866e+00  1.0206706435923711e+00  8.2854707234796265e-01  1.1036366011222456e+00  9.4289512860665803e-01  9.2030007965677141e-01  9.6951087185970675e-01  1.1040705940917559e+00  8.6064988731136538e-01  7.6648977451308709e-01  1.0526003120709531e+00  9.4468861859779174e-01  8.4617074653616431e-01  8.5318366452480765e-01  1.0168830482365603e+00  1.0855940096850456e+00  8.1124700623576784e-01  9.5592745098192355e-01  8.4882436835792840e-01  1.0931135033185773e+00  1.1026359096132212e+00  9.3823336871088481e-01  9.1753789579633416e-01  8.9545108467607493e-01  9.4390548445660394e-01  8.9697064147846117e-01  9.8406025647716333e-01  8.0812474902172571e-01  1.0852879206794741e+00  9.3737574541397639e-01  8.6281088338011092e-01  9.4119936239693069e-01  8.8636777340369599e-01  1.0936587226897028e+00  8.8492365774658199e-01  9.4320367342640743e-01  1.1033591974005577e+00  7.6774280426687680e-01  6.8306450599740642e-01  8.6800487275034943e-01  8.8826637139858788e-01  9.8687253175906664e-01  9.9918736621208493e-01  8.5827601967027345e-01  8.8554101705702293e-01  9.1976641527863923e-01  9.1190273730539939e-01  8.6738969291430768e-01  8.6967621395047090e-01  7.0619039328001776e-01  7.7813970623701134e-01  8.5664728340664065e-01  1.0153393277539731e+00  1.0200378379253983e+00  8.9575985270234260e-01  1.0887680369919130e+00  7.9399468556984176e-01  9.8300872923596994e-01  7.8823383980886019e-01  1.0462531950975094e+00  1.0720929682810514e+00  8.4863353777843131e-01  9.1382428867879051e-01  7.8668431652491977e-01  9.3448247884898983e-01  1.0188220715587426e+00  8.3972920771676418e-01  7.9191064293710756e-01  8.2550365108150181e-01  8.0746925443357409e-01  1.0886206684793673e+00  9.4251925106091949e-01  7.9163055150983885e-01  9.7993181630106352e-01  9.2904090264869876e-01  6.2408022107489036e-01  6.5741165946560076e-01  7.8531034535341759e-01  1.0174254985128357e+00  9.3036269600512767e-01  1.0640991670701108e+00  8.7946650745617294e-01  9.1445543685770925e-01  9.5672058278053340e-01  1.0412382723998654e+00  8.5247873612484537e-01  7.5765231853616788e-01  8.1605991951567414e-01  6.2476283951404943e-01  8.8455593467383842e-01  8.5557272861210887e-01  1.0698510259617000e+00  1.0368440033350659e+00  9.4086667018807613e-01  8.9364196227362669e-01  8.3681486223440549e-01  9.4123730925186266e-01  8.9654299242037694e-01  8.6982432259736453e-01  9.5205091677288256e-01  9.2853091704218316e-01  8.5679666793590337e-01  7.6218647544918938e-01  9.3288793103782919e-01  1.0365737028830493e+00  8.5008284539579293e-01  8.5042603227391400e-01  1.0966142830351693e+00  1.0962378952885157e+00  9.6569854032336100e-01  8.4871748135700054e-01  9.3056588254856010e-01  8.4669602063460747e-01  1.0643673790627768e+00  9.2944921003335723e-01  8.9570334171982480e-01  8.5962423555347955e-01  1.0959777783447411e+00  7.9573165360965148e-01  9.3119806562385687e-01  6.2001793638749925e-01  6.5396772974284945e-01  9.5304906399142886e-01  9.5288411796174521e-01  1.0940463032166046e+00  9.5180915115547360e-01  8.4568817779878958e-01  6.6102385495744953e-01  8.8876124529765965e-01  8.5922972142312137e-01  8.5287114092439364e-01  9.6268386735024392e-01  1.0993572394174811e+00  7.4818534462758157e-01  1.0344911814806861e+00  5.9788101926178439e-01  1.0921718431477077e+00  8.8108844793443020e-01  8.5937293626029110e-01  8.4719675819153462e-01  1.0383974529756079e+00  7.1228810057604164e-01  9.4305809353338632e-01  8.5632558863264785e-01  9.8574326005619006e-01  1.0925517011233457e+00  6.8223443629290481e-01  8.5079925514489985e-01  7.1590360723204827e-01  9.8893546508233132e-01  8.8026405130108831e-01  9.3633704361647863e-01  8.8284847874863548e-01  9.3557626791725668e-01  9.2473174054746055e-01  9.0756428678631862e-01  9.3128414615945110e-01  8.2840400022346572e-01  8.9286504121567178e-01  9.2802931633569896e-01  8.5711313412407741e-01  9.0901154036783571e-01  8.4807139381917362e-01  8.7751532956815781e-01  8.0694522827479864e-01  9.1856684492965024e-01  9.4421600310149578e-01  9.5037859688591164e-01  8.4691214469085130e-01  9.4829556219484301e-01  9.4026213953708515e-01  9.4579158836983379e-01  9.2914805940924161e-01  7.3302796208553811e-01  1.0601014257634078e+00  1.0434870630171835e+00  7.9440210750446549e-01  9.2756220115200627e-01  8.6937532713329202e-01  8.0304685606622139e-01  8.4113818571123944e-01  9.4430442637763701e-01  8.2369822795327607e-01  8.7872245632040080e-01  7.4517151989045227e-01  1.1025208646912126e+00  9.2749644350897986e-01  8.5734015740042235e-01  1.0488307792939928e+00  9.4682782973281088e-01  9.3594494524617666e-01  8.2685760532332664e-01  8.1182669557855403e-01  9.5264580183553760e-01  9.3908814178791089e-01  7.1622376011543210e-01  1.0127924745203847e+00  9.6614223853296621e-01  8.6070003928265293e-01  9.7903575086643002e-01  1.0733387482335461e+00  8.4997388530597950e-01  8.6078615886125609e-01  8.4170176017294263e-01  1.0544416063714330e+00  9.3670802278439402e-01  9.3069546319484164e-01  9.2939398334306966e-01  1.0114410865368919e+00  8.2459097027102435e-01  8.4353414052280284e-01  1.0962847283541035e+00  8.5678403740131526e-01  9.4724057978359399e-01  9.6864653094790321e-01  8.8529021553604892e-01  1.0135369037340562e+00  1.0853650578914222e+00  7.7215061852028577e-01  8.6805384366529770e-01  9.6103080475809632e-01  8.2525773854106299e-01  8.9154274313253545e-01  6.0312636004065723e-01  8.6877418415301033e-01  1.1083918859705442e+00  1.0847106363585799e+00  1.0762422390911210e+00  1.0896814054035076e+00  9.6187983206866234e-01  1.0774884900290744e+00  7.3864921490946045e-01  9.0044002304993798e-01  7.6713300703611953e-01  9.3134583944483396e-01  8.1322367014185082e-01  9.8365254998778728e-01  8.7263343749923494e-01  9.8903366170421647e-01  1.0883980816706353e+00  8.7301393939202687e-01  1.0943905893378225e+00  9.5316053122998512e-01  1.0560396413767172e+00  1.1049919669167003e+00  9.7755968309980779e-01  8.6102148726243732e-01  9.7020975465327663e-01  9.4541883793283388e-01  8.6738429784187498e-01  1.0878832363404471e+00  1.0107765916133413e+00  7.8121452908901834e-01  1.0710440303049344e+00  5.8701369877765297e-01  8.8517840905278700e-01  8.8179117221795300e-01  9.4992636778804540e-01  8.4129313030500763e-01  1.0123452969369422e+00  1.0542207500749532e+00  1.0932305422230892e+00  1.0997775619260668e+00  9.4795464954968800e-01  1.0292904768117326e+00  1.1076512177950073e+00  9.1756956628870157e-01  9.1729912655483259e-01  1.0968778843913445e+00  9.4484007068522824e-01  8.8937596543328035e-01  1.0638607176722406e+00  9.2550094620259138e-01  9.3257931973839836e-01  8.2616892064845338e-01  8.5305955262734734e-01  9.0300279665707039e-01  8.9850879859598465e-01  9.2474796824967176e-01  9.3489688254417913e-01  9.4866091804411079e-01  8.7432656157258448e-01  8.8790251724153357e-01  1.0398586834815378e+00  8.4445997380371685e-01  1.0647998597699306e+00  9.1635435120855002e-01  8.9560151468146398e-01  9.1775883709421147e-01  8.8063567422494571e-01  9.4371249544184854e-01  1.0401254975198362e+00  8.3703602862731197e-01  8.9761930389323874e-01  9.3657123122031360e-01  8.5349949681256698e-01  8.9573940922853601e-01  1.0317801170369680e+00  8.6586445666962164e-01  8.4936666334675848e-01  7.3948487679851715e-01  8.8962013316347255e-01  9.4559062543935768e-01  1.0694372827957959e+00  9.4581376565711395e-01  9.3417997484612825e-01  8.5048031693657622e-01  8.6690573641057289e-01  9.3536487910703447e-01  8.4539445018628279e-01  1.0108515885628899e+00  9.8992310958218732e-01  9.7607358613933026e-01  1.0846475787294578e+00  1.1077930212165661e+00  1.0600054510251178e+00  1.0240890006909595e+00  9.8902500006286309e-01  9.6610026261280046e-01  1.0996415537666502e+00  9.4393358249042569e-01  1.1078030438000575e+00  9.4369632051093599e-01  9.5623178869394909e-01  8.1337754482678482e-01  9.5631089664260471e-01  1.0845238707245908e+00  9.0831374208180093e-01  8.0168592115609871e-01  9.3776384424293735e-01  1.0268706676305470e+00  9.3929864115388750e-01  1.1006087630210954e+00  1.0566176516393027e+00  8.3891429076880286e-01  1.0748862973042099e+00  1.0929441434502285e+00  1.0658114136983703e+00  9.1526472974012274e-01  1.0779735097107594e+00  9.1001255556185101e-01  8.8538157869061418e-01  1.0527426977394059e+00  8.7690549736470857e-01  9.1810409429270534e-01  1.0089537324045534e+00  8.2791508089864740e-01  7.5204954221560072e-01  8.2533103460045432e-01  9.1439923792807487e-01  1.0512363392887969e+00  8.4826957371603551e-01  1.0941527950439811e+00  9.1273457919001633e-01  9.6328358411322645e-01  6.0764787845231782e-01  9.5001037869669558e-01  8.7002381950320729e-01  8.0922241753088109e-01  9.6847847102720197e-01  9.9041363417247441e-01  9.7633544631435465e-01  8.6474912112315505e-01  1.0097050056722978e+00  1.0598469622994404e+00  1.0907829349819533e+00  8.6647753523015936e-01  8.4021031214991082e-01  9.1315381576827537e-01  8.7182151579666933e-01  7.9208829227493804e-01  9.1982640100942226e-01  9.5216335045181888e-01  6.9767155606039755e-01  9.9208446405613948e-01  9.4769517063433439e-01  7.6186850676907669e-01  9.0630832623095725e-01  9.7462054421154654e-01  7.5482773385192037e-01  7.8257267730565450e-01  9.9019351039092696e-01  1.0486947867510679e+00  1.0996024682281775e+00  9.4340128696753600e-01  8.7501634034786946e-01  8.5459410667797209e-01  9.7527422609693137e-01  7.4342546927238429e-01  8.9920670008791437e-01  9.6962816133017915e-01  </DataArray> 
</PointData> 
</Piece>
</UnstructuredGrid>
</VTKFile>