<?xml version="1.0"?>
<VTKFile type="UnstructuredGrid"  version="0.1"  >
<UnstructuredGrid>
<Piece  NumberOfPoints="622" NumberOfCells="1116">
<Points>
<DataArray  type="Float64"  NumberOfComponents="3"  format="ascii">-6 -2 0  -6 2 0  6 2 0  6 -2 0  -2.8 0 0  -1.2 0 0  -5.500000000001853 -2 0  -5.000000000003705 -2 0  -4.500000000005556 -2 0  -4.000000000007409 -2 0  -3.50000000000926 -2 0  -3.000000000011112 -2 0  -2.500000000012963 -2 0  -2.000000000014814 -2 0  -1.500000000016665 -2 0  -1.000000000018516 -2 0  -0.5000000000203677 -2 0  -2.204547655537681e-11 -2 0  0.4999999999796305 -2 0  0.9999999999814779 -2 0  1.499999999983327 -2 0  1.999999999985175 -2 0  2.499999999987029 -2 0  2.999999999988882 -2 0  3.499999999990735 -2 0  3.999999999992589 -2 0  4.49999999999444 -2 0  4.999999999996293 -2 0  5.499999999998147 -2 0  6 -1.500000000001387 0  6 -1.000000000002774 0  6 -0.5000000000041616 0  6 -5.505595979116151e-12 0  6 0.4999999999958384 0  6 0.9999999999972258 0  6 1.499999999998613 0  5.500000000001853 2 0  5.000000000003705 2 0  4.500000000005556 2 0  4.000000000007409 2 0  3.50000000000926 2 0  3.000000000011112 2 0  2.500000000012963 2 0  2.000000000014814 2 0  1.500000000016665 2 0  1.000000000018516 2 0  0.5000000000203677 2 0  2.204547655537681e-11 2 0  -0.4999999999796305 2 0  -0.9999999999814779 2 0  -1.499999999983327 2 0  -1.999999999985175 2 0  -2.499999999987029 2 0  -2.999999999988882 2 0  -3.499999999990735 2 0  -3.999999999992589 2 0  -4.49999999999444 2 0  -4.999999999996293 2 0  -5.499999999998147 2 0  -6 1.500000000001387 0  -6 1.000000000002774 0  -6 0.5000000000041616 0  -6 5.505595979116151e-12 0  -6 -0.4999999999958384 0  -6 -0.9999999999972258 0  -6 -1.499999999998613 0  -2.796147781337886 -0.07841371226233997 0  -2.784628224322852 -0.1560722576115546 0  -2.765552268586196 -0.2322277418021561 0  -2.739103626009626 -0.30614674589063 0  -2.705537011479457 -0.3771173894593519 0  -2.665175689843037 -0.4444561864141836 0  -2.618408362691456 -0.5075146273293722 0  -2.565685424950688 -0.5656854249477874 0  -2.507514627332613 -0.6184083626887972 0  -2.444456186417533 -0.6651756898407991 0  -2.377117389462776 -0.7055370114776264 0  -2.306146745894456 -0.7391036260080417 0  -2.232227741806235 -0.7655522685849585 0  -2.15607225761588 -0.784628224321992 0  -2.078413712266957 -0.7961477813374315 0  -2.000000000003407 -0.7999999999999998 0  -1.921586287739523 -0.7961477813380696 0  -1.843927742389945 -0.7846282243231506 0  -1.767772258198879 -0.7655522685865098 0  -1.693853254109962 -0.7391036260098718 0  -1.622882610540873 -0.7055370114795768 0  -1.555543813585629 -0.6651756898429115 0  -1.49248537267008 -0.6184083626910072 0  -1.434314575051535 -0.5656854249500112 0  -1.381591637310384 -0.5075146273316149 0  -1.334824310158267 -0.4444561864161359 0  -1.294462988521423 -0.3771173894609975 0  -1.260896373990956 -0.3061467458920351 0  -1.234447731414138 -0.2322277418032578 0  -1.215371775677287 -0.156072257612254 0  -1.203852218662147 -0.07841371226267954 0  -1.203852218662115 0.07841371226235888 0  -1.215371775677132 0.156072257611478 0  -1.234447731413795 0.232227741802127 0  -1.260896373990353 0.3061467458905811 0  -1.294462988520456 0.3771173894591898 0  -1.334824310156812 0.444456186413959 0  -1.381591637308413 0.5075146273292139 0  -1.434314575049147 0.5656854249476236 0  -1.492485372667197 0.6184083626886415 0  -1.555543813582104 0.6651756898405565 0  -1.62288261053673 0.7055370114773629 0  -1.693853254105125 0.7391036260078683 0  -1.767772258193396 0.7655522685848468 0  -1.84392774238373 0.7846282243219146 0  -1.921586287732977 0.7961477813374253 0  -1.999999999996558 0.8 0  -2.078413712260516 0.7961477813380661 0  -2.156072257610207 0.7846282243231205 0  -2.232227741801178 0.7655522685864928 0  -2.306146745890059 0.7391036260098632 0  -2.377117389459098 0.7055370114795929 0  -2.444456186414405 0.6651756898428894 0  -2.50751462732998 0.6184083626909587 0  -2.565685424948549 0.5656854249499272 0  -2.61840836268981 0.5075146273313792 0  -2.665175689841831 0.4444561864159886 0  -2.705537011478692 0.3771173894607835 0  -2.739103626009108 0.3061467458918818 0  -2.76555226858589 0.2322277418031643 0  -2.784628224322724 0.1560722576122001 0  -2.796147781337853 0.07841371226267957 0  0.6720367661319522 0.1312687487860887 0  -4.389489086394485 0.3544472233398538 0  -3.816221554046232 -0.6097988664512611 0  -3.552726516474419 0.9342959806851625 0  -0.2536610443052337 0.8162373554653355 0  -0.1843238977799138 -0.6649951410982842 0  -3.613359951620445 0.1086570650978273 0  -3.146954163409593 -1.074378179335012 0  -0.4255266515582625 0.07734891565364931 0  -0.9413731612925856 1.168014724254929 0  -2.947764053183577 1.200029094390044 0  -0.8319852757411681 -1.058626838707328 0  2.675418990747819 -1.137325591670363e-12 0  -2.602010642259726 -1.287560129290477 0  -2.334401622060699 1.335006108940604 0  -1.524718496628401 1.32890816230333 0  -1.369813829148039 -1.26145150481762 0  -3.294065651892671 -0.4630240940010318 0  -2.072749204569071 -1.388981302138359 0  -0.7546165313921411 0.5601792161340381 0  -3.224879719581335 0.4382689715877901 0  -0.7073137361349826 -0.4625305410752652 0  4.326242945813966 0.3262429458150917 0  -3.187880061217201 0.07437712177460168 0  -2.94792024259867 0.7030255657465158 0  -2.678809277907896 0.9152683582887104 0  -4.911626141576894 -0.5700186648601188 0  -2.980647654587299 -0.5685006168686053 0  -2.769438919323564 -0.8202775213660614 0  -1.936950121013948 1.220669938589229 0  -0.8971643766260747 0.2762459428874499 0  -0.8760878018253068 -0.06836412137772707 0  -1.086827485441145 0.6772548942594016 0  -1.31355927028917 0.8808768148414213 0  -1.034266382739347 -0.5912381576649568 0  -1.241594139118264 -0.836771920085274 0  1.667161185638911 -0.6367996576268693 0  1.778189842800902 0.7191719841256095 0  -3.065106827511819 -0.266795371500425 0  3.714311277362231 -0.7275465302492842 0  -1.728329421201519 -1.09954751473283 0  4.870629493137888 -0.7325040699186681 0  -3.024707894719303 0.2567561910603656 0  -4.375540207252226 1.228935704312058 0  -2.272077148001781 -1.086192861256262 0  3.351408248797803 0.9175227128129597 0  -5.141847419540732 0.8091901960109126 0  0.5769368286199241 1.111816231125821 0  0.7411482978492124 -1.079569101289617 0  -1.074013749991219 0.430231207546053 0  -1.04664573441257 -0.3358382377487088 0  -2.439195336951085 0.9224778883059374 0  -2.902607676587358 0.4360473765597399 0  -1.629450174302152 1.035617385691805 0  -2.146859933125513 1.032375363966426 0  2.587625196444542 -0.9999926061845814 0  -2.529286802957126 -0.8830616815739111 0  -1.493798157676768 -0.8794705728517196 0  -1.932158132383022 -1.026681566564148 0  -4.09956359341904 -0.1372485582942864 0  5.055802064425553 1.050933510837308 0  -4.413659685984891 -1.207626391697488 0  -4.961411026474009 0.1201902955685026 0  -3.771151641156835 -1.303594976371997 0  -3.001321503506133 -0.04919177107285733 0  -3.881733605683001 0.5124517634812003 0  -0.1971627317996802 -1.336445372382849 0  -2.742825060181767 0.6732573903735507 0  2.520439429199979 1.129372838786189 0  -1.026326428668429 0.1384273198437734 0  -2.779290004861729 -0.5844691722665721 0  -2.895095740820851 -0.4261289730972082 0  -1.275682076193407 0.6630703172777138 0  0.1045291701958869 0.3433373435296472 0  5.175560481258801 0.0608563229178163 0  -1.211574424201636 -0.5847362589868093 0  -1.85847006217035 1.007917631940711 0  4.152535916385823 1.131901130662082 0  -1.04878257200685 -0.1253529988863012 0  1.432836501626023 0.05634449574318775 0  3.560672936003603 0.01188897172456759 0  -3.351823698389408 -0.1821329582635926 0  -5.145153363200735 -1.259166339382508 0  0.03473693330309885 -0.1724947236036572 0  -4.377830921337186 -0.6172564090242229 0  -0.3943750728122595 1.410897156959435 0  -1.661073679471639 -0.9342065000197183 0  -1.49086536677686 0.8331714487926741 0  -2.584486130952032 0.7871482690034864 0  4.270535884593893 -1.259607924744415 0  -1.757417028085795 -1.505182186951191 0  -3.430586920998477 1.425579221231371 0  -2.917598827418652 -0.2298465409534677 0  -2.328978331116049 -0.9300959620317677 0  -2.148543000691344 -0.9751580214451921 0  1.002654111360038 -0.4521702885594788 0  -4.628651824080903 -0.1127998710567241 0  -2.948904386702482 0.1555943115410545 0  0.4165242577134774 -0.5629432649478633 0  -3.698137692471105 -0.3173027948676715 0  -3.491400684461791 -0.7926319721650269 0  -0.3844454817728994 0.4680628696134375 0  -3.207830713508533 0.9778749990559993 0  3.229909751065535 -1.326302454776001 0  5.330007715336748 -1.312905173261894 0  -2.649214054100534 -0.713314536278899 0  1.342022964818772 -1.328315248672686 0  -2.556460939068198 1.202372762828344 0  -0.3497819755044588 -0.3080427614060888 0  -4.928440909495523 1.387622767511967 0  1.309170811945155 1.337467055109531 0  -1.352031940181449 -0.7151198948590243 0  -0.6132855723904642 0.9519045895123004 0  4.266838388406324 -0.3707357390867402 0  -3.834389788310238 1.371594798941152 0  -1.187890214580146 0.4851427123079557 0  -1.109118888029193 0.3185947354467283 0  0.1837819401738013 1.234799661476361 0  1.108165254659559 0.6237223548284967 0  -0.5266600156584522 -0.8113991260886402 0  -4.643822083543982 0.7834094684931707 0  -1.146235204666366 -0.4027330721405781 0  2.049029845992713 -0.2664662499985428 0  2.002665761665898 -1.328912351029848 0  -1.678783505586872 0.8978832065736417 0  -2.049499525232052 0.9483890761590005 0  -2.229972236535132 0.9181006323151361 0  -3.033763529945482 -1.54240494280775 0  -3.562344364746847 0.5622550957224539 0  -5.524396842903405 -0.2709714867672603 0  -0.9710982764034376 -1.549038578476423 0  3.058819320130555 -0.5375106252795963 0  -4.170365230099585 0.7342553699229977 0  -1.045878746461381 -8.187420622554697e-05 0  -1.864822945411764 -0.9219031104673102 0  -0.6251005091687033 -0.2120650512195049 0  2.317562622406059 0.4886417799113238 0  -0.6674371191466613 0.1483993095055008 0  -2.705757882979874 1.609712312948224 0  
[...]
<PointData  Scalars="f_24"> 
<DataArray  type="Float64"  Name="f_24"  format="ascii">1.0000005440744364e+00  1.0000005440744364e+00  1.0000005440744364e+00  1.0000005440744364e+00  3.5719429822557647e-01  1.3132109031607480e+00  9.7387624317338706e-01  9.4991156036212887e-01  9.2516183029246557e-01  9.0159765781018220e-01  8.7451199039212224e-01  8.5012203755661453e-01  8.0852522731750687e-01  8.3099854792440042e-01  9.5506580782167583e-01  1.1123394746017103e+00  1.2143579050868258e+00  1.2511341358535646e+00  1.2545237913129375e+00  1.2422097398096679e+00  1.2220338816190492e+00  1.1990126069343301e+00  1.1746530551404983e+00  1.1502847206833557e+00  1.1252380239608513e+00  1.1001540786876196e+00  1.0751683170295376e+00  1.0500352859245441e+00  1.0252550362434194e+00  1.0000005440744364e+00  1.0000005440744364e+00  1.0000005440744364e+00  1.0000005440744364e+00  1.0000005440744364e+00  1.0000005440744364e+00  1.0000005440744364e+00  1.0263772890407339e+00  1.0507383286037826e+00  1.0751228197706610e+00  1.0998021214952294e+00  1.1249249233313383e+00  1.1504779732621078e+00  1.1741387465864654e+00  1.1990196118710155e+00  1.2225094636390539e+00  1.2423201314152073e+00  1.2544132217225179e+00  1.2544892173796998e+00  1.2111939889950500e+00  1.1095833088790035e+00  9.5654670030603517e-01  8.3874877276652438e-01  7.9848043782343936e-01  8.5138464648624390e-01  8.7346675230929649e-01  9.0054328961165220e-01  9.2520952293563219e-01  9.5017327109258909e-01  9.7411493211534728e-01  1.0000005440744364e+00  1.0000005440744364e+00  1.0000005440744364e+00  1.0000005440744364e+00  1.0000005440744364e+00  1.0000005440744364e+00  1.0000005440744364e+00  3.5782578117797437e-01  3.6082840161960211e-01  3.4415100820310290e-01  3.4927576633567892e-01  3.2309551378419560e-01  3.4771257854114157e-01  3.0141510163255009e-01  3.3647031471507438e-01  2.6716261443304112e-01  2.9993854606980391e-01  2.3983518898138825e-01  2.7742649548746551e-01  2.3690217701549651e-01  2.4845326144775051e-01  2.2971217996505472e-01  2.3515210036619649e-01  2.4408374954609144e-01  2.5317626239526386e-01  2.8314957499907900e-01  3.3912941559998544e-01  4.1412826181876494e-01  5.0836196749686757e-01  6.1479757286066050e-01  7.3314518896372016e-01  8.4872894238246210e-01  9.6179197144505846e-01  1.0618053227854021e+00  1.1500401752668272e+00  1.2188989672503385e+00  1.2703182023249304e+00  1.3034439130586151e+00  1.3029729269617329e+00  1.2712507798130792e+00  1.2211771016638346e+00  1.1498071957477354e+00  1.0638333963672195e+00  9.6143832233656901e-01  8.5042822233543647e-01  7.3318302305309091e-01  6.1602601229084042e-01  5.0868991638621974e-01  4.1223581924681635e-01  3.3904583424998880e-01  2.8269884164922066e-01  2.5734038395839337e-01  2.3699107504860020e-01  2.3313844581725193e-01  2.4377697744662555e-01  2.4238629211542076e-01  2.7858531187356517e-01  2.6908352065563346e-01  2.5651684295177768e-01  2.4352266694697458e-01  3.3282675783280757e-01  2.7095701163721431e-01  3.3456091910854291e-01  3.3403719143026583e-01  3.3774818723648531e-01  3.3971835465916217e-01  3.6472184820339659e-01  3.5370993130282136e-01  3.6012992160787005e-01  1.2817730091061601e+00  9.1694535177777647e-01  8.8326210627533286e-01  8.7149172658856910e-01  1.3074866018996829e+00  1.3247731389861919e+00  8.5812095115323439e-01  8.4199420299504024e-01  1.4071501691524859e+00  1.1392706127439609e+00  8.2210799439056081e-01  1.1922426578010585e+00  1.1672858527759833e+00  7.7510231472242430e-01  7.3332387840528623e-01  8.4641411777084019e-01  9.1581287824225266e-01  8.1988508702192386e-01  7.3203566047822033e-01  1.3207717599134683e+00  7.9983332932264006e-01  1.3590935270709172e+00  1.0839732121203027e+00  7.6695681404046712e-01  7.5103888551601228e-01  6.9719989531538396e-01  9.4502255974889682e-01  7.3285772413498618e-01  7.0115027441720168e-01  6.5558912316553863e-01  1.3622583046414705e+00  1.4180026433420707e+00  1.0655611916750909e+00  8.0112265441643959e-01  1.1372267080949614e+00  8.7593629908750237e-01  1.2187732007320753e+00  1.2125818021437373e+00  7.2070733111800778e-01  1.1146733628666230e+00  5.9850024393858137e-01  1.0566561549191202e+00  6.9668817485398571e-01  9.1977276580691336e-01  5.9717313885589407e-01  1.1327633403229449e+00  9.5688597576436418e-01  1.2644736299399504e+00  1.2592903954039190e+00  1.1609828416919963e+00  1.2383778687833193e+00  5.4913365524778723e-01  6.5331179031869147e-01  5.8210894658624279e-01  4.9805453026544033e-01  1.1709615332040477e+00  5.9020062731205725e-01  5.2418445240421052e-01  4.3693072856870419e-01  8.9869759962267559e-01  1.0474306270477887e+00  9.2158496084959740e-01  9.4709803710141738e-01  8.9143674185043786e-01  6.5893839394224885e-01  8.8689341033908087e-01  1.2581847427392299e+00  6.2433210938220673e-01  1.1742776248048656e+00  1.3339961515682639e+00  6.0631180010574959e-01  6.3927088277246669e-01  8.0142414990042343e-01  1.3269893469136103e+00  1.0413805716971949e+00  9.2658274519227535e-01  4.1726702217164868e-01  1.0925116677224846e+00  1.3283616741232229e+00  1.2332951057588109e+00  1.1224331790034645e+00  8.1725065345919623e-01  9.5740743627678593e-01  1.3406196738504146e+00  9.1728139172855305e-01  1.2365204529907239e+00  3.9856723968388369e-01  4.9523184703936229e-01  5.6604890164631350e-01  1.0866581680050846e+00  8.2314545848560017e-01  8.7436656088637599e-01  6.0330507108233566e-01  4.9147979859541591e-01  4.2944006598482670e-01  1.2568725415283841e+00  9.2965659530437006e-01  6.1792190810886927e-01  1.2925689724016973e+00  8.6894300702456473e-01  8.6173611779037973e-01  1.3612500676175807e+00  8.3976094731893824e-01  1.1386976102933342e+00  1.0335927155027318e+00  5.7043884635752573e-01  1.2300167018838886e+00  7.4701361686494472e-01  1.3806075295559044e+00  9.4671273261914479e-01  1.2321148086415312e+00  6.8167665746082795e-01  1.2622005181827398e+00  1.0869568889447558e+00  8.9480181656228996e-01  1.0341874464633691e+00  1.2121358196345104e+00  1.2696400919243040e+00  1.2485368448362810e+00  1.2983065990839826e+00  9.3162810542576746e-01  1.1302197442381106e+00  1.1995384910458766e+00  1.1994511076078644e+00  3.3478590839139066e-01  3.4350790958810329e-01  4.0278344874936622e-01  8.5277990356182909e-01  8.6154308806525215e-01  9.7601410601643490e-01  1.1136641650092307e+00  1.1476257782669887e+00  9.0641661211980784e-01  1.3462356606201940e+00  2.7109686267362432e-01  1.4222150856184896e+00  1.1853215016039367e+00  1.4325449546194735e+00  8.2777551367918867e-01  1.2023532004769091e+00  6.0642083393872848e-01  5.7473215606954287e-01  1.4032506300838741e+00  8.2444404313956909e-01  9.7834830452158617e-01  1.2787770538089753e+00  1.0481835656264071e+00  8.2180254035140177e-01  8.4982791894306098e-01  8.8713376877612027e-01  6.2432186861618399e-01  1.3928385545887523e+00  5.2844850798754928e-01  1.2132167849758733e+00  1.2620463882975306e+00  1.2971155786327282e+00  1.0330244618867104e+00  7.9475613869043094e-01  1.1462928397171559e+00  1.2590953616692817e+00  9.7448342254280773e-01  7.5973945956321254e-01  1.2589391314007836e+00  1.1176959438461076e+00  8.2276618356925324e-01  7.8583107121218532e-01  1.0774382085952194e+00  8.0183291529349687e-01  1.0309628890731701e+00  4.4974166859907061e-01  4.9380086944141943e-01  9.6556921416534125e-01  7.4298410098461265e-01  1.1559158339782463e+00  7.9618382512874086e-01  1.1377541024996962e+00  9.6733186217127243e-01  3.5159469361069556e-01  5.3803711871254933e-01  5.3745213526469615e-01  1.0429824852759726e+00  1.0289172739650123e+00  8.9234476918542838e-01  1.1060702046345010e+00  3.2244777688982162e-01  2.6174149039884664e-01  9.3633387916422217e-01  1.0673379025564873e+00  4.0232741554038631e-01  4.9556142158095401e-01  4.6945174304586867e-01  5.4970824135058771e-01  5.4743377053271225e-01  7.9121565015264472e-01  1.1133496011586357e+00  1.0602287670318471e+00  9.0321809477602766e-01  8.5712349041457547e-01  7.6448541454449703e-01  8.6954649429087283e-01  7.2481855868884326e-01  1.4195190859090521e+00  2.4558482061915468e-01  3.5163859568990335e-01  1.2587148375960917e+00  1.2056826508880432e+00  6.5278042872028830e-01  1.0603264284020091e+00  9.1030893983088423e-01  1.1164128193468397e+00  1.2506139889523973e+00  1.1617811496987338e+00  9.3718638250821185e-01  1.0190482641931244e+00  6.0128703482148649e-01  1.2973433024714127e+00  1.2739279098074532e+00  5.9231808083021253e-01  2.7283780541934510e-01  3.2196404351112340e-01  1.1942730919340714e+00  1.1690952454436587e+00  2.3859802528609542e-01  5.1041201157987326e-01  4.9585940847346299e-01  9.1079587145020224e-01  9.0936195391608698e-01  1.2419435493278972e+00  2.3768311080268012e-01  1.3028241276382431e+00  5.0452037170645292e-01  8.6072002357376076e-01  1.2975612980557256e+00  1.1866707230314821e+00  9.3787846902956007e-01  1.2487481337564896e+00  4.8137004612067108e-01  1.2999662024174066e+00  5.1057979484522076e-01  1.2086090507527634e+00  9.7526876606733326e-01  1.2979540222509620e+00  1.3191760180906562e+00  1.0633160135425015e+00  4.8335319760221501e-01  8.5222784218822145e-01  7.9365744740175459e-01  9.7822674366876150e-01  1.1710554385150018e+00  4.8823715181743699e-01  9.0993845666144924e-01  4.8136543042861557e-01  9.8050318422123450e-01  1.3493755644789054e+00  7.6258697668324937e-01  1.2881753046183140e+00  2.1879772790118662e-01  7.2202324703037124e-01  4.5638622345216584e-01  9.0726089868196336e-01  4.2432749454773649e-01  2.6322402243616483e-01  9.0046409791268589e-01  3.3663269103786331e-01  4.5290721973389031e-01  3.7744233906533253e-01  7.3636962963531760e-01  7.7343417966524808e-01  6.5187805366232421e-01  1.3681350833495673e+00  2.1829412300292531e-01  8.6180523204607895e-01  2.8884439097486631e-01  8.0475828876577704e-01  7.2019508550401234e-01  8.8584436290435142e-01  6.9343344780515837e-01  1.0998656352280580e+00  1.0714495006387226e+00  7.3380957670001956e-01  6.7337843534993103e-01  8.4061144847329772e-01  4.4246865982798717e-01  8.1918167384657958e-01  8.3056944064703908e-01  1.2309679028772633e+00  7.2691362666243953e-01  6.7051080437601729e-01  1.1817423167524148e+00  9.0111453886279613e-01  1.2886896810954380e+00  1.0804244553605082e+00  8.8951420271817860e-01  8.5109947681324682e-01  7.9211925168954400e-01  6.9937700938959890e-01  1.3281242054996742e+00  9.1475507560453184e-01  6.6460256872142698e-01  1.0211142101638939e+00  9.4976570008273309e-01  1.3181874500101081e+00  9.6241676589967362e-01  1.2566601544920872e+00  7.1846944643075217e-01  1.3185598674063921e+00  9.5626108373849472e-01  1.0886927589601336e+00  6.5302666173763024e-01  8.0975384122847194e-01  8.7062450989252549e-01  1.0188393648325738e+00  9.2924287106965719e-01  1.0636005544242120e+00  1.1940216581815293e+00  7.9244908690540938e-01  8.8842358590316195e-01  1.2521320843698225e+00  5.5181316199147123e-01  1.0223282066854473e+00  1.2366405168591110e+00  4.5755874585924278e-01  6.7318386918722062e-01  9.2906909612924704e-01  9.8997372383565585e-01  9.2410666033078526e-01  4.8684761087357153e-01  6.7624450026284710e-01  1.2143589557437429e+00  1.1462560640920691e+00  1.1279865632540640e+00  1.1553774787837499e+00  9.3739227884151644e-01  1.1309896448025560e+00  1.2150875127937035e+00  8.7661024107589403e-01  1.2547109467405768e+00  8.6685362962053214e-01  1.2682388317423072e+00  9.7008553934417885e-01  8.3809432652096716e-01  1.3206156970309268e+00  1.2314496265020238e+00  8.4925518363083985e-01  1.2487573791843785e+00  9.3153467011012936e-01  1.2579861599053634e+00  1.1870975947110809e+00  9.6681882662853058e-01  1.3437131912213542e+00  9.5496485155023036e-01  1.3776573117554749e+00  6.4804799109090383e-01  1.1499031165812350e+00  1.3190886601199177e+00  6.5090858100234861e-01  1.2679965878783148e+00  4.8317022726148229e-01  1.4470167340440296e+00  1.2287447022531126e+00  2.9032550565357707e-01  1.1783080230568943e+00  1.0197981165701107e+00  1.0880459670818610e+00  1.1866378716721899e+00  1.2163533111758040e+00  9.2657537025318615e-01  1.0480733980267583e+00  1.2171400127714276e+00  7.8816201903134997e-01  4.7315305633924182e-01  1.1627281234827604e+00  8.7116169151048528e-01  8.4310351655924776e-01  1.1046562146142758e+00  6.8190171317049708e-01  7.6710831050872685e-01  6.3084739902151077e-01  1.2712633776054318e+00  8.5457150857015063e-01  1.4009110473856274e+00  4.9791886850829792e-01  9.0280319765404082e-01  9.1867442203084315e-01  2.8231645115134141e-01  1.3869657213776110e+00  1.0658112054026749e+00  8.2251297070202767e-01  1.1079895955123318e+00  8.7936740745577957e-01  8.0720953914026894e-01  2.2265287282403537e-01  8.3567929765009619e-01  9.0505922896793711e-01  1.0657699896350943e+00  1.0930115967584484e+00  6.1796936742182595e-01  3.8803027036523929e-01  1.1922129701129816e+00  4.7246057031143285e-01  1.3001941473712224e+00  1.3825542000216173e+00  1.0181684918306504e+00  6.5975936689462278e-01  8.0724719476041107e-01  9.1976060401774684e-01  1.1142614226280960e+00  7.9241301638183381e-01  4.3816132652246270e-01  1.1108809795450261e+00  1.3539501075077087e+00  8.8432813362985019e-01  1.1899615177506071e+00  1.0178744503229586e+00  9.8247386632316425e-01  9.5942947328991646e-01  1.1381627677565584e+00  1.2338142890296893e+00  1.2660489443591261e+00  1.0394744841866397e+00  9.8299302544661349e-01  1.2499282582873403e+00  1.2177713040821363e+00  8.6863518118051852e-01  1.2331964312053700e+00  8.2104452013369034e-01  9.3229189159820247e-01  1.2918360184669540e+00  2.1806818724620017e-01  1.1379519718000366e+00  4.7175436716641822e-01  1.0359621761120006e+00  9.1457196242104111e-01  1.0438873562152822e+00  8.3977118296302267e-01  1.2440336344704295e+00  1.2770013128037876e+00  1.3262067225330383e+00  1.2566034093730925e+00  1.1723444611776062e+00  1.1095382558031757e+00  8.7580121309107528e-01  1.1292420457910275e+00  1.4060933659348698e+00  7.6845818002482580e-01  1.2780457653438213e+00  6.1568407591963970e-01  1.2763715158592488e+00  1.0146199416138140e+00  6.8090067247970498e-01  1.1254587389418351e+00  1.2724460001485047e+00  8.8811601763738857e-01  1.0844217158259801e+00  7.6994181887747726e-01  1.2324096329015566e+00  7.7896215473703700e-01  9.4372254374952991e-01  4.6078457967674047e-01  9.2050676485858385e-01  6.4642698975497703e-01  9.8047054477740703e-01  9.4273500668450672e-01  1.3005603099935119e+00  1.3493063006599288e+00  1.3704738797727312e+00  1.0160268691822218e+00  1.0986373298962253e+00  1.2188132514713936e+00  7.7680832835396596e-01  9.6931667482055717e-01  8.4662144870948097e-01  1.4118035596700373e+00  1.0466742868359868e+00  4.3738028471711982e-01  1.3461800819795791e+00  6.1894002276554971e-01  9.8533815413301939e-01  9.0612181695751726e-01  7.2466553068150819e-01  8.7985484944209635e-01  9.5346566842160718e-01  7.2201093679963346e-01  1.0739865010154979e+00  9.8435336912526195e-01  1.0806598208534066e+00  1.1824809494939341e+00  8.0431180332412799e-01  1.3943084055296775e+00  1.3130928653373475e+00  9.6194052174604749e-01  1.2045072983016418e+00  5.4269301821470917e-01  9.5127777774389488e-01  </DataArray> 
</PointData> 
</Piece>
</UnstructuredGrid>
</VTKFile>