<?xml version="1.0"?>
<VTKFile type="UnstructuredGrid"  version="0.1"  >
<UnstructuredGrid>
<Piece  NumberOfPoints="622" NumberOfCells="1116">
<Points>
<DataArray  type="Float64"  NumberOfComponents="3"  format="ascii">-6 -2 0  -6 2 0  6 2 0  6 -2 0  -2.8 0 0  -1.2 0 0  -5.500000000001853 -2 0  -5.000000000003705 -2 0  -4.500000000005556 -2 0  -4.000000000007409 -2 0  -3.50000000000926 -2 0  -3.000000000011112 -2 0  -2.500000000012963 -2 0  -2.000000000014814 -2 0  -1.500000000016665 -2 0  -1.000000000018516 -2 0  -0.5000000000203677 -2 0  -2.204547655537681e-11 -2 0  0.4999999999796305 -2 0  0.9999999999814779 -2 0  1.499999999983327 -2 0  1.999999999985175 -2 0  2.499999999987029 -2 0  2.999999999988882 -2 0  3.499999999990735 -2 0  3.999999999992589 -2 0  4.49999999999444 -2 0  4.999999999996293 -2 0  5.499999999998147 -2 0  6 -1.500000000001387 0  6 -1.000000000002774 0  6 -0.5000000000041616 0  6 -5.505595979116151e-12 0  6 0.4999999999958384 0  6 0.9999999999972258 0  6 1.499999999998613 0  5.500000000001853 2 0  5.000000000003705 2 0  4.500000000005556 2 0  4.000000000007409 2 0  3.50000000000926 2 0  3.000000000011112 2 0  2.500000000012963 2 0  2.000000000014814 2 0  1.500000000016665 2 0  1.000000000018516 2 0  0.5000000000203677 2 0  2.204547655537681e-11 2 0  -0.4999999999796305 2 0  -0.9999999999814779 2 0  -1.499999999983327 2 0  -1.999999999985175 2 0  -2.499999999987029 2 0  -2.999999999988882 2 0  -3.499999999990735 2 0  -3.999999999992589 2 0  -4.49999999999444 2 0  -4.999999999996293 2 0  -5.499999999998147 2 0  -6 1.500000000001387 0  -6 1.000000000002774 0  -6 0.5000000000041616 0  -6 5.505595979116151e-12 0  -6 -0.4999999999958384 0  -6 -0.9999999999972258 0  -6 -1.499999999998613 0  -2.796147781337886 -0.07841371226233997 0  -2.784628224322852 -0.1560722576115546 0  -2.765552268586196 -0.2322277418021561 0  -2.739103626009626 -0.30614674589063 0  -2.705537011479457 -0.3771173894593519 0  -2.665175689843037 -0.4444561864141836 0  -2.618408362691456 -0.5075146273293722 0  -2.565685424950688 -0.5656854249477874 0  -2.507514627332613 -0.6184083626887972 0  -2.444456186417533 -0.6651756898407991 0  -2.377117389462776 -0.7055370114776264 0  -2.306146745894456 -0.7391036260080417 0  -2.232227741806235 -0.7655522685849585 0  -2.15607225761588 -0.784628224321992 0  -2.078413712266957 -0.7961477813374315 0  -2.000000000003407 -0.7999999999999998 0  -1.921586287739523 -0.7961477813380696 0  -1.843927742389945 -0.7846282243231506 0  -1.767772258198879 -0.7655522685865098 0  -1.693853254109962 -0.7391036260098718 0  -1.622882610540873 -0.7055370114795768 0  -1.555543813585629 -0.6651756898429115 0  -1.49248537267008 -0.6184083626910072 0  -1.434314575051535 -0.5656854249500112 0  -1.381591637310384 -0.5075146273316149 0  -1.334824310158267 -0.4444561864161359 0  -1.294462988521423 -0.3771173894609975 0  -1.260896373990956 -0.3061467458920351 0  -1.234447731414138 -0.2322277418032578 0  -1.215371775677287 -0.156072257612254 0  -1.203852218662147 -0.07841371226267954 0  -1.203852218662115 0.07841371226235888 0  -1.215371775677132 0.156072257611478 0  -1.234447731413795 0.232227741802127 0  -1.260896373990353 0.3061467458905811 0  -1.294462988520456 0.3771173894591898 0  -1.334824310156812 0.444456186413959 0  -1.381591637308413 0.5075146273292139 0  -1.434314575049147 0.5656854249476236 0  -1.492485372667197 0.6184083626886415 0  -1.555543813582104 0.6651756898405565 0  -1.62288261053673 0.7055370114773629 0  -1.693853254105125 0.7391036260078683 0  -1.767772258193396 0.7655522685848468 0  -1.84392774238373 0.7846282243219146 0  -1.921586287732977 0.7961477813374253 0  -1.999999999996558 0.8 0  -2.078413712260516 0.7961477813380661 0  -2.156072257610207 0.7846282243231205 0  -2.232227741801178 0.7655522685864928 0  -2.306146745890059 0.7391036260098632 0  -2.377117389459098 0.7055370114795929 0  -2.444456186414405 0.6651756898428894 0  -2.50751462732998 0.6184083626909587 0  -2.565685424948549 0.5656854249499272 0  -2.61840836268981 0.5075146273313792 0  -2.665175689841831 0.4444561864159886 0  -2.705537011478692 0.3771173894607835 0  -2.739103626009108 0.3061467458918818 0  -2.76555226858589 0.2322277418031643 0  -2.784628224322724 0.1560722576122001 0  -2.796147781337853 0.07841371226267957 0  0.6720367661319522 0.1312687487860887 0  -4.389489086394485 0.3544472233398538 0  -3.816221554046232 -0.6097988664512611 0  -3.552726516474419 0.9342959806851625 0  -0.2536610443052337 0.8162373554653355 0  -0.1843238977799138 -0.6649951410982842 0  -3.613359951620445 0.1086570650978273 0  -3.146954163409593 -1.074378179335012 0  -0.4255266515582625 0.07734891565364931 0  -0.9413731612925856 1.168014724254929 0  -2.947764053183577 1.200029094390044 0  -0.8319852757411681 -1.058626838707328 0  2.675418990747819 -1.137325591670363e-12 0  -2.602010642259726 -1.287560129290477 0  -2.334401622060699 1.335006108940604 0  -1.524718496628401 1.32890816230333 0  -1.369813829148039 -1.26145150481762 0  -3.294065651892671 -0.4630240940010318 0  -2.072749204569071 -1.388981302138359 0  -0.7546165313921411 0.5601792161340381 0  -3.224879719581335 0.4382689715877901 0  -0.7073137361349826 -0.4625305410752652 0  4.326242945813966 0.3262429458150917 0  -3.187880061217201 0.07437712177460168 0  -2.94792024259867 0.7030255657465158 0  -2.678809277907896 0.9152683582887104 0  -4.911626141576894 -0.5700186648601188 0  -2.980647654587299 -0.5685006168686053 0  -2.769438919323564 -0.8202775213660614 0  -1.936950121013948 1.220669938589229 0  -0.8971643766260747 0.2762459428874499 0  -0.8760878018253068 -0.06836412137772707 0  -1.086827485441145 0.6772548942594016 0  -1.31355927028917 0.8808768148414213 0  -1.034266382739347 -0.5912381576649568 0  -1.241594139118264 -0.836771920085274 0  1.667161185638911 -0.6367996576268693 0  1.778189842800902 0.7191719841256095 0  -3.065106827511819 -0.266795371500425 0  3.714311277362231 -0.7275465302492842 0  -1.728329421201519 -1.09954751473283 0  4.870629493137888 -0.7325040699186681 0  -3.024707894719303 0.2567561910603656 0  -4.375540207252226 1.228935704312058 0  -2.272077148001781 -1.086192861256262 0  3.351408248797803 0.9175227128129597 0  -5.141847419540732 0.8091901960109126 0  0.5769368286199241 1.111816231125821 0  0.7411482978492124 -1.079569101289617 0  -1.074013749991219 0.430231207546053 0  -1.04664573441257 -0.3358382377487088 0  -2.439195336951085 0.9224778883059374 0  -2.902607676587358 0.4360473765597399 0  -1.629450174302152 1.035617385691805 0  -2.146859933125513 1.032375363966426 0  2.587625196444542 -0.9999926061845814 0  -2.529286802957126 -0.8830616815739111 0  -1.493798157676768 -0.8794705728517196 0  -1.932158132383022 -1.026681566564148 0  -4.09956359341904 -0.1372485582942864 0  5.055802064425553 1.050933510837308 0  -4.413659685984891 -1.207626391697488 0  -4.961411026474009 0.1201902955685026 0  -3.771151641156835 -1.303594976371997 0  -3.001321503506133 -0.04919177107285733 0  -3.881733605683001 0.5124517634812003 0  -0.1971627317996802 -1.336445372382849 0  -2.742825060181767 0.6732573903735507 0  2.520439429199979 1.129372838786189 0  -1.026326428668429 0.1384273198437734 0  -2.779290004861729 -0.5844691722665721 0  -2.895095740820851 -0.4261289730972082 0  -1.275682076193407 0.6630703172777138 0  0.1045291701958869 0.3433373435296472 0  5.175560481258801 0.0608563229178163 0  -1.211574424201636 -0.5847362589868093 0  -1.85847006217035 1.007917631940711 0  4.152535916385823 1.131901130662082 0  -1.04878257200685 -0.1253529988863012 0  1.432836501626023 0.05634449574318775 0  3.560672936003603 0.01188897172456759 0  -3.351823698389408 -0.1821329582635926 0  -5.145153363200735 -1.259166339382508 0  0.03473693330309885 -0.1724947236036572 0  -4.377830921337186 -0.6172564090242229 0  -0.3943750728122595 1.410897156959435 0  -1.661073679471639 -0.9342065000197183 0  -1.49086536677686 0.8331714487926741 0  -2.584486130952032 0.7871482690034864 0  4.270535884593893 -1.259607924744415 0  -1.757417028085795 -1.505182186951191 0  -3.430586920998477 1.425579221231371 0  -2.917598827418652 -0.2298465409534677 0  -2.328978331116049 -0.9300959620317677 0  -2.148543000691344 -0.9751580214451921 0  1.002654111360038 -0.4521702885594788 0  -4.628651824080903 -0.1127998710567241 0  -2.948904386702482 0.1555943115410545 0  0.4165242577134774 -0.5629432649478633 0  -3.698137692471105 -0.3173027948676715 0  -3.491400684461791 -0.7926319721650269 0  -0.3844454817728994 0.4680628696134375 0  -3.207830713508533 0.9778749990559993 0  3.229909751065535 -1.326302454776001 0  5.330007715336748 -1.312905173261894 0  -2.649214054100534 -0.713314536278899 0  1.342022964818772 -1.328315248672686 0  -2.556460939068198 1.202372762828344 0  -0.3497819755044588 -0.3080427614060888 0  -4.928440909495523 1.387622767511967 0  1.309170811945155 1.337467055109531 0  -1.352031940181449 -0.7151198948590243 0  -0.6132855723904642 0.9519045895123004 0  4.266838388406324 -0.3707357390867402 0  -3.834389788310238 1.371594798941152 0  -1.187890214580146 0.4851427123079557 0  -1.109118888029193 0.3185947354467283 0  0.1837819401738013 1.234799661476361 0  1.108165254659559 0.6237223548284967 0  -0.5266600156584522 -0.8113991260886402 0  -4.643822083543982 0.7834094684931707 0  -1.146235204666366 -0.4027330721405781 0  2.049029845992713 -0.2664662499985428 0  2.002665761665898 -1.328912351029848 0  -1.678783505586872 0.8978832065736417 0  -2.049499525232052 0.9483890761590005 0  -2.229972236535132 0.9181006323151361 0  -3.033763529945482 -1.54240494280775 0  -3.562344364746847 0.5622550957224539 0  -5.524396842903405 -0.2709714867672603 0  -0.9710982764034376 -1.549038578476423 0  3.058819320130555 -0.5375106252795963 0  -4.170365230099585 0.7342553699229977 0  -1.045878746461381 -8.187420622554697e-05 0  -1.864822945411764 -0.9219031104673102 0  -0.6251005091687033 -0.2120650512195049 0  2.317562622406059 0.4886417799113238 0  -0.6674371191466613 0.1483993095055008 0  -2.705757882979874 1.609712312948224 0  
[...]
<PointData  Scalars="f_24"> 
<DataArray  type="Float64"  Name="f_24"  format="ascii">1.0000007345828688e+00  1.0000007345828688e+00  1.0000007345828688e+00  1.0000007345828688e+00  4.2985011888338692e-01  8.6793751303835431e-01  9.8376168771112427e-01  9.6776605534503712e-01  9.5150200816204233e-01  9.3617862993343215e-01  9.1976615858366784e-01  8.9346794778132765e-01  8.5105001982672057e-01  7.8761536089202477e-01  7.6134601779994682e-01  8.9368087372095417e-01  1.0508803158001427e+00  1.1373701863132217e+00  1.1653638071151715e+00  1.1628529310922486e+00  1.1501107176952692e+00  1.1341413119317858e+00  1.1176677139819537e+00  1.1004094174671664e+00  1.0844704376769989e+00  1.0666239559933421e+00  1.0508419087389180e+00  1.0329681811526841e+00  1.0172820350771370e+00  1.0000007345828688e+00  1.0000007345828688e+00  1.0000007345828688e+00  1.0000007345828688e+00  1.0000007345828688e+00  1.0000007345828688e+00  1.0000007345828688e+00  1.0170025507675597e+00  1.0331292606983551e+00  1.0508810525921595e+00  1.0663815238750636e+00  1.0841300552308486e+00  1.1013820687200642e+00  1.1170874199173486e+00  1.1340834530155548e+00  1.1503195897035745e+00  1.1627345348310179e+00  1.1656268103241760e+00  1.1381566223248305e+00  1.0553939879109706e+00  8.7990784582387782e-01  7.8608837250776342e-01  7.8732666175641108e-01  8.4282691443488478e-01  8.9229346522713060e-01  9.1872213506607470e-01  9.3513729236630094e-01  9.5146117835326760e-01  9.6741657477424503e-01  9.8352515401427043e-01  1.0000007345828688e+00  1.0000007345828688e+00  1.0000007345828688e+00  1.0000007345828688e+00  1.0000007345828688e+00  1.0000007345828688e+00  1.0000007345828688e+00  4.3210121899925169e-01  4.3996567919810614e-01  4.3451535976738298e-01  4.4955353467816195e-01  4.4535074851851708e-01  4.8168144214587222e-01  4.6775788551951286e-01  5.1279132156566987e-01  4.9282450881490114e-01  5.4242070347768923e-01  5.4252279929988212e-01  5.9711994352264353e-01  6.1640348685865043e-01  6.5349135054992957e-01  6.6971727990018659e-01  6.7442384809325240e-01  6.5553941659942294e-01  6.1293825058432005e-01  5.6799663372306175e-01  5.3504139437658071e-01  5.3088279308476904e-01  5.4907433158045371e-01  5.8763188371593822e-01  6.3308140593582607e-01  6.8156991983144177e-01  7.2787909085408342e-01  7.6897793028257122e-01  8.0441790363601295e-01  8.3138418701352468e-01  8.5144435732389623e-01  8.6423807482694648e-01  8.6394470192665462e-01  8.5156106093515205e-01  8.3192412040466557e-01  8.0376689640377763e-01  7.6913149820221682e-01  7.2741132301065459e-01  6.8101350640692782e-01  6.3234079631514817e-01  5.8591322306301563e-01  5.4741469941072540e-01  5.2940629258473060e-01  5.3499175641955388e-01  5.6804635788594560e-01  6.1459780890263627e-01  6.5453560115977572e-01  6.7488466590544671e-01  6.7439444803578297e-01  6.4875330238792162e-01  6.3269281552047618e-01  5.9535474866044835e-01  5.4810323931609661e-01  5.0410231397057292e-01  5.2871318913799503e-01  4.6867951654711620e-01  4.8891248972586010e-01  4.7235672439712340e-01  4.5781197132388335e-01  4.4187967874430462e-01  4.5206175997357800e-01  4.3409989647353109e-01  4.3437572006338199e-01  1.1741053870858695e+00  9.4245241424019799e-01  9.1973696013325890e-01  9.1672608916348730e-01  1.0547030703933882e+00  1.0758556730689652e+00  8.9427616600743454e-01  9.0498370548862539e-01  1.0336424475604904e+00  7.6185261157948259e-01  8.9637881071777381e-01  8.2181985633482024e-01  1.1115334831658288e+00  8.5264878181801851e-01  7.9360893414073508e-01  5.7743880465605490e-01  5.5161534105517862e-01  8.6712580965994146e-01  7.4664479136698891e-01  9.0123429716952963e-01  8.5032115938595698e-01  9.2893221572354223e-01  1.0561832182118389e+00  8.0997140479108265e-01  8.2972048919621577e-01  8.0377475074104743e-01  9.6272110985826198e-01  8.0296160851902998e-01  8.0215373527097245e-01  6.3971557089774922e-01  8.9065089477109649e-01  9.1383322149268831e-01  7.3602625204171479e-01  5.3454575084124212e-01  7.8353852819535064e-01  5.9487734492840805e-01  1.1450976369676522e+00  1.1412417963624393e+00  7.7211310985584214e-01  1.0766960221866411e+00  5.1175740704109496e-01  1.0379284011649623e+00  7.5009951746847281e-01  9.4700609922711088e-01  7.1094434205465196e-01  1.0889009291374967e+00  9.7100063162548256e-01  1.1662185175612316e+00  1.1659721227347473e+00  8.0995294425412001e-01  8.4033818043386954e-01  7.0458897543786203e-01  7.2723423849086832e-01  4.7419679802070697e-01  6.5870190809776830e-01  1.1144036552107603e+00  7.2762876869542048e-01  4.7898351647117204e-01  5.9353967875486591e-01  9.2829969059407680e-01  1.0316782612263986e+00  9.4844504320566725e-01  9.6378081446303598e-01  9.3042283356446542e-01  7.0822990416238041e-01  9.2131044501557247e-01  1.0938173954949673e+00  7.3387640020186740e-01  1.1167299597738400e+00  8.7647311560603303e-01  7.0777714459003116e-01  7.1448785442472895e-01  6.5527470448129477e-01  1.1381061583792429e+00  1.0276841673024026e+00  7.1293717472910301e-01  5.6537248228742798e-01  1.0618815547975413e+00  8.7404664527166465e-01  1.1529850088336862e+00  1.0818525231757028e+00  8.5772668823568254e-01  9.7195230059999516e-01  1.1297848458791953e+00  9.4360162350115862e-01  1.0464869249422291e+00  4.8942116124517965e-01  4.9874863700955990e-01  7.0469024180952011e-01  1.0580683812673841e+00  6.8744552321641383e-01  9.2043340344305080e-01  6.6429329989339159e-01  6.7320155561811479e-01  6.4236498440478640e-01  1.1664455913492813e+00  9.5137098921781471e-01  6.7363426896102985e-01  1.1664816832551343e+00  9.0518027555060843e-01  9.0866898607328372e-01  1.0299204277140930e+00  9.0202515228864499e-01  1.0929922183918368e+00  1.0225874465493807e+00  6.9979523808805999e-01  1.1538012320839928e+00  8.3271788104732503e-01  1.0464382581955076e+00  9.6486780643691628e-01  1.1550046860137120e+00  6.0007981763036844e-01  9.3063454900232101e-01  1.0581742355971382e+00  9.3171292971150454e-01  7.5725619761552143e-01  8.2902250071546657e-01  1.1462080120737457e+00  1.1617235245000299e+00  9.6896087654154128e-01  9.5383814063337824e-01  7.9682832295212047e-01  1.1324504327572622e+00  1.1337454644833527e+00  5.0491945160734564e-01  6.2485938200196212e-01  6.3816799950156666e-01  9.0193312903888401e-01  9.0277600533378621e-01  9.8379254236868874e-01  8.4541916486386692e-01  1.0986787468129782e+00  9.3665947699118168e-01  8.8091935820986311e-01  5.8127781986113813e-01  9.7517567500274938e-01  1.1234749620139186e+00  9.6545480044893139e-01  8.7000180089504764e-01  1.1357193196377122e+00  7.0280557568205371e-01  6.4672595653983589e-01  9.1988677435764044e-01  8.8124505333329817e-01  9.8566329572575606e-01  1.1403215951311290e+00  7.9101348480775635e-01  8.8058158831370692e-01  7.6270919995787445e-01  9.1939183328344454e-01  5.7459209262430566e-01  9.3927635177879110e-01  6.2832800745263329e-01  8.1708447171833931e-01  8.4837589076494502e-01  1.1460258567266319e+00  1.0221075731050715e+00  8.6975206929082371e-01  1.0981323115965957e+00  8.6809317030326172e-01  9.8269675317098459e-01  8.0297246378119880e-01  1.1573257316585954e+00  1.0789843922477673e+00  8.6376197713883507e-01  8.7198009634799056e-01  6.8078676535788896e-01  8.8227590612378082e-01  1.0207026268345116e+00  6.3676656430863565e-01  6.4235435587624257e-01  5.5909300930093786e-01  8.0278516249263665e-01  1.1041714341955309e+00  8.3505799103464962e-01  7.5029362275532352e-01  9.7812333808741436e-01  5.1211471018399013e-01  5.9813059805043911e-01  6.1240610398413919e-01  6.3243463576056991e-01  1.0190951620499948e+00  9.2826486439699407e-01  1.0709473024349490e+00  6.2577069754178449e-01  6.2592420684589323e-01  9.5643501409527598e-01  1.0450764080690806e+00  6.2901657413707968e-01  6.3060678610707721e-01  6.3906293251100832e-01  6.0580502326699737e-01  5.5926747035491586e-01  6.5709595522362796e-01  1.0759763920086185e+00  1.0402868117587736e+00  9.3587354848802284e-01  8.9974201099018070e-01  8.2780762364506544e-01  9.1949295758216965e-01  4.5755914181005652e-01  9.1405825657696649e-01  5.5769542354731194e-01  5.1099514391366163e-01  8.4688722866018840e-01  9.5965775891562088e-01  7.6797310178331524e-01  1.0403098348019391e+00  7.0639768093710298e-01  7.9063737273053369e-01  1.1652155569414484e+00  1.1084666589422913e+00  9.5901946406288285e-01  7.5196603513652338e-01  7.2424408046166322e-01  8.6231603762559994e-01  1.1710993686987219e+00  6.7253039491051769e-01  6.2315181294184285e-01  6.1359796678486522e-01  1.1296152971425624e+00  9.2853333276401351e-01  6.1361840037855109e-01  5.7917258077984979e-01  5.8539366865509102e-01  9.4166244812649347e-01  9.4120783755575665e-01  1.1593447759937738e+00  5.5759966792983040e-01  8.6719698623051844e-01  5.9324121518307993e-01  8.9890833534060521e-01  8.6203268696049684e-01  8.1899496761487489e-01  9.5866601371014026e-01  1.1647149409144320e+00  6.1686745376529761e-01  1.1739924302760052e+00  5.6966793549896733e-01  1.1383229528677405e+00  7.3985756154520288e-01  8.6211768961059432e-01  9.7864848853842346e-01  1.0423731745451117e+00  6.0278486293344336e-01  9.0228741579181582e-01  6.5649475755666842e-01  9.8536568408810976e-01  1.1141393604425873e+00  5.9299105743436242e-01  7.0602209689494810e-01  6.0460892650568621e-01  9.8715150086132653e-01  1.0049456653118964e+00  7.6672417477013177e-01  1.0643442373620582e+00  6.1600357472894740e-01  8.2522915663460994e-01  5.2798473265861512e-01  9.3494038241174626e-01  6.2195841865563606e-01  6.2612021655965144e-01  9.3073159673120187e-01  6.1452108463118404e-01  5.2889715062293419e-01  6.1584041439696302e-01  4.5077494316150984e-01  8.2004879961809818e-01  5.4301386493061210e-01  1.0839025056208860e+00  5.9830440937801554e-01  4.9290483820401743e-01  5.3343234084880486e-01  8.3950558766163341e-01  7.7967438459463734e-01  9.2522643507714086e-01  7.4033652340280509e-01  1.0667956066559161e+00  1.0478360143740670e+00  7.9136908405814776e-01  6.1745031047682031e-01  8.8122225749859140e-01  6.2115449163465164e-01  8.5868788474276081e-01  8.7562388905262167e-01  8.2391461039760483e-01  8.2100084100971205e-01  7.3107386891492665e-01  1.1220324235869812e+00  9.3094802469118088e-01  8.5901986142691134e-01  1.0538076147320929e+00  9.2763817234114654e-01  9.1197990085181679e-01  8.3804849852309371e-01  7.7830989218962254e-01  1.0971559472667107e+00  9.4091846718583516e-01  7.1604757241649086e-01  1.0141275431332823e+00  9.6561623459662105e-01  8.6992336208226240e-01  9.7548420993335128e-01  1.1663892747293019e+00  8.0413442067319396e-01  8.7006632611428092e-01  7.2337272658341334e-01  1.0592127528507203e+00  6.9831136315555231e-01  7.8430849627338206e-01  9.1853328927716382e-01  1.0125894410526084e+00  6.4375890803697500e-01  7.6999340287090789e-01  1.1296179428196649e+00  8.5153787975288275e-01  9.2732635677068875e-01  1.1290938949048352e+00  5.6134012378172748e-01  1.0149137271279287e+00  1.1547476267441741e+00  6.1521843837861845e-01  6.0610988853282577e-01  9.5350943945393374e-01  7.0470970783055986e-01  7.2561612272080678e-01  5.5739528541930061e-01  6.0767418414290941e-01  1.1443312161054062e+00  1.0976751579440003e+00  1.0855678598193019e+00  1.1039517530480527e+00  9.5822010234455313e-01  1.0875743634921986e+00  9.2369190823189506e-01  9.1008461328628110e-01  9.7860816898732250e-01  9.1723211300414254e-01  1.0194387346936928e+00  9.8075220551147779e-01  8.8219901731686701e-01  1.1329060271940274e+00  1.1524790185179790e+00  8.8691942704968640e-01  1.1622970082085156e+00  9.5314578670999539e-01  1.1598189533012251e+00  1.1258109144817789e+00  9.7737502709306101e-01  8.8129573846423059e-01  9.6939311837397346e-01  1.0844397095157692e+00  7.6298799575283582e-01  1.1003711145546091e+00  1.1595532611507475e+00  7.3343883506519914e-01  1.1684076189434831e+00  5.4774746570905586e-01  9.6434069964970892e-01  1.0684855281090491e+00  5.3517498379245132e-01  9.7910767986254765e-01  1.0134888012302972e+00  1.0589673986390022e+00  1.1242015350168790e+00  1.1443630594088023e+00  9.4917492563705441e-01  1.0319840117997270e+00  1.1462857330370344e+00  6.5863898312244706e-01  4.7203206345876764e-01  1.1093839993687449e+00  9.1326226663047638e-01  8.9162915783077190e-01  1.0701381603670110e+00  7.8914736918500317e-01  8.5526524227774592e-01  7.3772488347000575e-01  8.5336003450544373e-01  9.0278933099968039e-01  1.0054016518501474e+00  6.1533113313885646e-01  9.3406255970632812e-01  9.4541412602289709e-01  6.1918606634445772e-01  9.9224155414458848e-01  1.0440206301776913e+00  6.5621595914141673e-01  1.0722301852743958e+00  9.1800791108301583e-01  8.7627963172722834e-01  6.3334946347753129e-01  8.8462397315053931e-01  9.3723990322604522e-01  1.0440353169315715e+00  7.7407842265680149e-01  7.4600280515512629e-01  5.3380395763201627e-01  8.2072140206217870e-01  6.6366905176943136e-01  1.1680389667831002e+00  8.9581947100553860e-01  7.5040021591108108e-01  7.2336536788044647e-01  5.8071722231042489e-01  9.4528026777578700e-01  1.0766058579072850e+00  8.5056455690041521e-01  5.1938959278585228e-01  7.8869089107476220e-01  9.6636443552724927e-01  9.2586343473841126e-01  8.2039478056461934e-01  1.0119526019945071e+00  9.8868980840061937e-01  9.7308088846814478e-01  1.0926314896103837e+00  1.1570819966470969e+00  1.1604440007891530e+00  1.0263677869038859e+00  9.8855649413423041e-01  1.1256119337081603e+00  1.1451906509261884e+00  9.0989037710553800e-01  1.1565133519214541e+00  8.9127838662508907e-01  9.5426496717860265e-01  9.0412054979406686e-01  6.0575711095547602e-01  1.0927166937904280e+00  6.6277075231804650e-01  6.9253882419022428e-01  9.4045776765194777e-01  1.0294324642438015e+00  9.0573185036799853e-01  1.1611339583903384e+00  1.1698440470454630e+00  9.4257615574619802e-01  1.1655447814721989e+00  1.1151303934759735e+00  1.0732551290750545e+00  7.7165094046287241e-01  1.0864565641628234e+00  1.0237674058171493e+00  4.7771396162439944e-01  1.1630364434810396e+00  7.4311161944488913e-01  1.1000670125516552e+00  1.0098525132720944e+00  7.7099094214647779e-01  7.8566126035628137e-01  8.5608425521205134e-01  9.2067653181012188e-01  1.0565216590847701e+00  6.0109220455198442e-01  1.1536468927473069e+00  8.6313423061472738e-01  9.6193255390737709e-01  5.4314507708069737e-01  9.4659429600928180e-01  5.3791491762425703e-01  5.6543414656299318e-01  9.6251793089887649e-01  1.1303101281604573e+00  1.1235770192599226e+00  8.9097651388125743e-01  1.0105638476401970e+00  1.0660150554864156e+00  1.1448118316549318e+00  8.4709707315036364e-01  6.6175489421532785e-01  9.0301825028755833e-01  9.2858443938739410e-01  6.4331643804428318e-01  6.2678286270368333e-01  1.0950836277119340e+00  6.8022433095709911e-01  9.9076174766903158e-01  9.3869583970628401e-01  7.7060629818941362e-01  9.1401938509313463e-01  9.6984209858330239e-01  7.6670168065315425e-01  7.3355312309219955e-01  9.8941641561543436e-01  1.0539573382367944e+00  1.1223328473741812e+00  8.7841866908223054e-01  9.5269001204613701e-01  8.7038232060320320e-01  9.7424506538979816e-01  8.4197517213412509e-01  6.9877628003659242e-01  9.6737700259584292e-01  </DataArray> 
</PointData> 
</Piece>
</UnstructuredGrid>
</VTKFile>