<?xml version="1.0"?>
<VTKFile type="UnstructuredGrid"  version="0.1"  >
<UnstructuredGrid>
<Piece  NumberOfPoints="406" NumberOfCells="722">
<Points>
<DataArray  type="Float64"  NumberOfComponents="3"  format="ascii">-6 -2 0  -6 2 0  6 2 0  6 -2 0  -2.8 0 0  -1.2 0 0  -5.500000000001853 -2 0  -5.000000000003705 -2 0  -4.500000000005556 -2 0  -4.000000000007409 -2 0  -3.50000000000926 -2 0  -3.000000000011112 -2 0  -2.500000000012963 -2 0  -2.000000000014814 -2 0  -1.500000000016665 -2 0  -1.000000000018516 -2 0  -0.5000000000203677 -2 0  -2.204547655537681e-11 -2 0  0.4999999999796305 -2 0  0.9999999999814779 -2 0  1.499999999983327 -2 0  1.999999999985175 -2 0  2.499999999987029 -2 0  2.999999999988882 -2 0  3.499999999990735 -2 0  3.999999999992589 -2 0  4.49999999999444 -2 0  4.999999999996293 -2 0  5.499999999998147 -2 0  6 -1.500000000001387 0  6 -1.000000000002774 0  6 -0.5000000000041616 0  6 -5.505595979116151e-12 0  6 0.4999999999958384 0  6 0.9999999999972258 0  6 1.499999999998613 0  5.500000000001853 2 0  5.000000000003705 2 0  4.500000000005556 2 0  4.000000000007409 2 0  3.50000000000926 2 0  3.000000000011112 2 0  2.500000000012963 2 0  2.000000000014814 2 0  1.500000000016665 2 0  1.000000000018516 2 0  0.5000000000203677 2 0  2.204547655537681e-11 2 0  -0.4999999999796305 2 0  -0.9999999999814779 2 0  -1.499999999983327 2 0  -1.999999999985175 2 0  -2.499999999987029 2 0  -2.999999999988882 2 0  -3.499999999990735 2 0  -3.999999999992589 2 0  -4.49999999999444 2 0  -4.999999999996293 2 0  -5.499999999998147 2 0  -6 1.500000000001387 0  -6 1.000000000002774 0  -6 0.5000000000041616 0  -6 5.505595979116151e-12 0  -6 -0.4999999999958384 0  -6 -0.9999999999972258 0  -6 -1.499999999998613 0  -2.776753453941174 -0.1914525314286965 0  -2.708364820523325 -0.3717785376335722 0  -2.598808598538216 -0.5304981265911284 0  -2.454451797386757 -0.65838709271366 0  -2.283683909636528 -0.748012994147384 0  -2.096429344207466 -0.7941670992780535 0  -1.903570655798842 -0.7941670992788195 0  -1.716316090368095 -0.7480129941491368 0  -1.545548202616307 -0.6583870927157747 0  -1.401191401463757 -0.530498126593356 0  -1.291635179477527 -0.371778537635196 0  -1.223246546059047 -0.1914525314295925 0  -1.223246546058803 0.1914525314286035 0  -1.291635179476594 0.3717785376334188 0  -1.401191401461634 0.5304981265909601 0  -1.545548202612898 0.6583870927134221 0  -1.716316090363093 0.7480129941472402 0  -1.903570655792394 0.7941670992780367 0  -2.096429344201276 0.7941670992788055 0  -2.283683909631911 0.7480129941491347 0  -2.454451797383697 0.6583870927157729 0  -2.598808598536385 0.530498126593196 0  -2.70836482052258 0.3717785376349917 0  -2.776753453940975 0.1914525314295042 0  0.4588466633941945 0.2704149791022056 0  -4.424312812173863 0.2760319703992994 0  -3.803977598762586 -0.6841584599595646 0  -0.1330968762779425 -0.6798763971615133 0  2.451109587541276 3.169800318630399e-13 0  -3.563610936250569 0.5929994091167295 0  4.204753319582647 0.2820669554523581 0  -0.4390897559348154 0.6178095532273566 0  -3.041446812595122 1.175550440315544 0  -0.9622132806516797 1.132103015222783 0  1.069493318942931 -0.773608156980569 0  -4.924330687080279 -0.7127064269610045 0  -3.024693497948964 -1.195179289656404 0  -0.9648749555625579 -1.256854520022574 0  -3.443624282349383 -0.2044158249759613 0  -0.5611500783757608 -0.1747080110423833 0  1.60270880116926 0.7487034276124258 0  3.488352576142236 -0.8228939860777884 0  4.816375011670135 -0.8163750116689444 0  3.243628045085357 0.8578172796997985 0  -4.228632884234073 1.228069101636678 0  -2.365220384435482 -1.356128547810356 0  -1.637465979486354 1.3571687267915 0  -1.642380978561139 -1.359365080147485 0  -2.362988915989869 1.356737096243695 0  -5.134120367293631 0.8356299802910161 0  2.077496878467794 -0.9514080034522553 0  4.960859291178299 0.9608592911785537 0  0.3293120056474302 1.148965409695154 0  -5.157560560414062 0.09447106214747865 0  -3.14779387667392 -0.6330563038825547 0  -3.148134455585257 0.4354299640428653 0  -0.8464439673630421 0.4159277415926296 0  -0.9918125625721008 -0.7191748422889824 0  -4.355349213295776 -1.234510499778242 0  1.582074659164868 -0.06850205959954866 0  2.400584045214166 1.204278622181321 0  5.102831660739063 0.03453404176596848 0  4.083259768981113 1.154272958349666 0  -3.992394834362243 -0.1621022234411988 0  0.4290302718942113 -1.225465289645401 0  -3.681487986394671 -1.310544246656267 0  -3.640289698916164 1.187023654838123 0  0.468851680921228 -0.447055967952278 0  3.315209904217932 0.05667935655546536 0  -2.541160649745046 -1.046980928586996 0  -1.45196684542695 1.044189935346116 0  -2.000844595891861 -1.207983108473125 0  -1.453092202970521 -1.061139264918894 0  -2.000050543938391 1.207806685704176 0  -2.548033154566413 1.04418993534851 0  4.13054585796652 -1.232871249381608 0  -0.3301617095463629 1.221692405319566 0  -0.2880491989587189 -1.359626628407983 0  -0.0758941643813178 0.132275811829787 0  2.826389221580753 -1.233168480096227 0  -2.922070412327736 0.7575752117792038 0  1.003070890178416 1.271347915034201 0  -5.319521816151902 -1.310543894393663 0  -1.070407062963812 0.7877698545098388 0  -4.562499863038985 -0.2302396981426722 0  -3.164226661545047 0.07179577787350272 0  -0.9091377812900333 0.132454654016971 0  4.116029045943655 -0.4851826871817362 0  5.316659189209927 -1.316659189208741 0  -0.9498828454673396 -0.4149758979014553 0  -4.037769805263969 0.6896174350675625 0  1.431664772855882 -1.327784137638992 0  -3.646693623568034 0.1600006358878044 0  -2.878371345483476 -0.7910345833001061 0  1.062603041385242 0.2894765870627741 0  -0.547955103783681 0.1635272504420374 0  -4.804809838419659 1.41016301576038 0  -3.042895319571192 -0.3694931303482478 0  -4.59252578392403 0.792267765362792 0  2.823271260730033 -0.5472430318427347 0  -4.28575390662405 -0.7521491832384866 0  -0.5524005545121191 -0.9037367558558163 0  1.815219025072439 1.388812135783969 0  -1.288398729718543 -0.8178399475601057 0  -5.424388493366639 1.35375165044146 0  -2.256991952837567 -1.049538527273222 0  -1.739586738723494 -1.052327527873255 0  -1.738827359988536 1.050180627239116 0  -2.257795730428802 1.049701225145305 0  -0.62222340523776 -0.5483611729237363 0  2.065188519029698 0.5424877383589943 0  0.1055865106318892 0.7347782870471022 0  1.013082573993895 -0.2061877611231605 0  -5.428323520618333 -0.4386412085227075 0  5.374041502384443 -0.5304401760993408 0  3.435185060219232 -1.377658617395091 0  -3.302377238490527 0.8841390072780534 0  -0.9902123298072768 -0.124175295282554 0  0.7186958547669859 0.8724503317343631 0  2.941237214953417 1.390391532351976 0  4.708037787864423 -1.340276032051348 0  5.395029680982659 1.395029680983341 0  3.591022587550188 1.348260650408605 0  2.759385971589342 0.4857447325740718 0  -0.6832705231418494 0.8879387563573758 0  5.437781298507145 0.5981501503262471 0  -2.698603003287285 1.617130043745112 0  -3.463358189947519 -1.013588318179017 0  1.710866040171871 -0.6978716337870808 0  3.642182982762737 0.4555704362064124 0  -2.699802128031161 -1.618310703146212 0  -1.3020054856637 1.619819977935582 0  -2.000000000004996 -1.566396763829867 0  -1.999999999994794 1.566396763830688 0  -1.247812462071684 -1.595232739507426 0  4.59429106759859 1.420052135572917 0  0.9448382581152466 -1.440259145469251 0  -0.116376100998861 -0.2606209011258676 0  -4.774521510507792 0.4245390872783272 0  -2.983910172370106 -0.1208000607277856 0  -3.353983741142061 1.576062863985777 0  -5.473352579109997 0.4917619255280954 0  -4.828650470275986 -1.493148538517745 0  4.639973657165532 -0.2833178611094909 0  -2.660279445404468 0.7699932347178977 0  -1.335045190775955 0.7744876666923373 0  -3.395669172689978 0.2584951122361346 0  2.279110606119369 -1.465899541383697 0  4.734317729212562 0.4520963557364723 0  -0.6334913028224612 1.584213953723378 0  2.121854101359879 -0.4289611127787379 0  -3.474459720833238 -0.4977581316675216 0  -1.066539898844178 0.3411379476537602 0  -3.361849707555382 -1.611428512420182 0  -4.099039818938317 0.3306400369415774 0  -2.935324777364672 0.354721898811665 0  -3.973578595052027 1.482940358734671 0  3.784450148635689 -0.0702780807301525 0  -1.191348122671212 -0.5614501189722798 0  -2.838672605956353 -0.5493179047027598 0  -1.184983441257359 0.5617520886612424 0  -2.811184099847449 0.5574240755049175 0  0.2702752249355158 -0.8003643570420809 0  -0.6945947797857237 -1.593893965175195 0  0.001175881878679056 1.504521009023778 0  0.6072931735145096 1.501814722697789 0  -3.991896293645949 -1.047264188412552 0  -3.734097395159253 -0.3261671578666079 0  -5.539652387691843 -0.8857154182585802 0  -4.395061924111849 1.563293728588296 0  0.2258327611651416 -0.08745142624872881 0  -3.774816634825771 0.8676973328379478 0  2.208484493569073 1.6256686312487 0  0.1309939514660535 -1.566169703482512 0  -5.551414360955331 0.9459842275970113 0  -4.04734138658365 -1.51163984963472 0  -4.947145019546805 -0.3299925153029702 0  4.320410447198621 0.6970857582435144 0  -4.707557346727139 -1.000565649857444 0  1.353711468973986 1.582551234446199 0  1.674156483558973 0.3266252271732694 0  -4.039105552973997 -0.4537604746027087 0  0.01051727619263377 -1.088858357362194 0  -0.2234942609176301 0.8619127912343982 0  -2.95903482691863 0.1219373374385197 0  -4.682467695920681 0.0804575682243254 0  5.535750224195656 -0.1525732643419722 0  -4.290083947414376 -0.0005258314026840717 0  1.136102562417988 0.7655312464039168 0  -2.816589394567214 0.9927597419785312 0  -2.645374456162409 -0.7645902451387543 0  4.18414576655837 1.624276131878667 0  0.7127337088822223 -0.9006358935856398 0  1.972418102153911 0.9727040774616764 0  -2.42199174813501 0.8591219219254587 0  -2.418604734200992 -0.8552987735117754 0  -5.573597213364169 -0.03612430678117123 0  2.024792870869397 0.05574071630590883 0  -1.578875191508968 0.861424470724936 0  -1.54706008231699 -0.8630049102346303 0  3.848662181064435 -1.569601980075533 0  -2.000000000003871 -0.9746445732264465 0  -1.99999999
[...]
<PointData  Scalars="f_24"> 
<DataArray  type="Float64"  Name="f_24"  format="ascii">-5.6967500260964854e-01  -5.6967500260964854e-01  0.0000000000000000e+00  0.0000000000000000e+00  -7.7476222188507327e-01  -9.7707414679987142e-02  -5.6813655383728490e-01  -5.6657702580953462e-01  -5.6319903016729023e-01  -5.5823003630172630e-01  -5.5018518075910172e-01  -5.2973743276801122e-01  -4.9022070370003390e-01  -3.9728433065189500e-01  -2.7025201267042331e-01  -1.5986684989619637e-01  -9.1609724768123568e-02  -5.4961034663639795e-02  -3.5308446050840929e-02  -2.4527978231553390e-02  -1.7832326524892157e-02  -1.3900687779412016e-02  -1.0061267319096616e-02  -8.3564580201772667e-03  -6.5608882808192714e-03  -4.6965930077542250e-03  -3.2574453648990687e-03  -1.9980322436006573e-03  -1.2802335310637012e-03  0.0000000000000000e+00  0.0000000000000000e+00  0.0000000000000000e+00  0.0000000000000000e+00  0.0000000000000000e+00  0.0000000000000000e+00  0.0000000000000000e+00  -1.2496116896391677e-03  -2.1745824478117872e-03  -3.4043651085854873e-03  -5.0780159742237901e-03  -6.3815929544526594e-03  -8.1956319829396863e-03  -1.0537780708509602e-02  -1.3713789071219638e-02  -1.7593633603297208e-02  -2.4342278083402603e-02  -3.5303490778430903e-02  -5.5021876675386702e-02  -9.0894068014059998e-02  -1.6077891081839518e-01  -2.6939740747075130e-01  -3.9738674853643075e-01  -4.9026860329834848e-01  -5.2953216251203361e-01  -5.5033773353081428e-01  -5.5834480744425352e-01  -5.6389020465784312e-01  -5.6609264822452288e-01  -5.6822503721290940e-01  -5.6967500260964854e-01  -5.6967500260964854e-01  -5.6967500260964854e-01  -5.6967500260964854e-01  -5.6967500260964854e-01  -5.6967500260964854e-01  -5.6967500260964854e-01  -7.7066555115074342e-01  -7.5748821510750064e-01  -7.1137784280091287e-01  -6.2646042702885507e-01  -5.1656107901953552e-01  -3.9028091207391907e-01  -2.7340478117353323e-01  -1.8295219736932034e-01  -1.3168753770109126e-01  -1.0910457986232715e-01  -1.0196515887062477e-01  -9.8806712207670025e-02  -9.8777102217226187e-02  -1.0196974264966191e-01  -1.0965281726106951e-01  -1.3117938342326080e-01  -1.8249598076091861e-01  -2.7359127276100947e-01  -3.9028119217734464e-01  -5.1615456508876734e-01  -6.2702844954533721e-01  -7.1081128926414949e-01  -7.5554212568526435e-01  -7.7212689466684659e-01  -4.9935105331146985e-02  -5.7539684796766100e-01  -5.7672318543670931e-01  -7.3520537961577120e-02  -1.4612179022303481e-02  -5.8968010560771067e-01  -5.1158762608617230e-03  -8.8576879763828567e-02  -5.4021959985173151e-01  -1.5053639201644151e-01  -3.0800101401809787e-02  -5.6882701992279805e-01  -5.3752014104272761e-01  -1.5720714538996561e-01  -6.2154335286692952e-01  -8.8820379029457081e-02  -2.2045934708945645e-02  -7.5021864114060786e-03  -2.9810944808715614e-03  -8.5439539030226185e-03  -5.6195337911251408e-01  -4.6458071125600869e-01  -3.0260032363364864e-01  -3.0389740454656466e-01  -4.6414834779053105e-01  -5.6834888820328600e-01  -1.6115589309775375e-02  -2.5911715238545862e-03  -4.9952467734181660e-02  -5.7057545193888548e-01  -6.1008280444639673e-01  -6.4018781896862087e-01  -1.0261413238234560e-01  -1.2370289443995500e-01  -5.6273995335274829e-01  -2.4475460982977804e-02  -1.2766902972738990e-02  -2.3667663549657913e-03  -5.1101490112266910e-03  -5.8674321125592854e-01  -4.5638143986988983e-02  -5.5277611831957285e-01  -5.5487478440553950e-01  -4.9045338595342290e-02  -8.9375373538910785e-03  -5.2400227713534941e-01  -2.2386497490092178e-01  -3.9482622970575948e-01  -2.2625677718883266e-01  -3.9463310422434811e-01  -5.2593568530898138e-01  -4.8437181332122575e-03  -8.7507025611113537e-02  -8.3975731235332973e-02  -6.9954432036915148e-02  -1.0124768557071208e-02  -6.0373431333787719e-01  -2.9327944008952556e-02  -5.6756263166269760e-01  -1.3659765732220600e-01  -5.7398472330499239e-01  -6.6776342558153257e-01  -9.7505851303203481e-02  -5.3316563363000058e-03  -1.5165708191710861e-03  -1.0539143035241391e-01  -5.7341863054404618e-01  -2.1838517726562864e-02  -6.0525859765973999e-01  -5.9771795204052747e-01  -3.3487474093352794e-02  -8.8379290535961177e-02  -5.6508433744709130e-01  -6.6795348221014050e-01  -5.6855380496319829e-01  -1.1365323982530210e-02  -5.6966804067092924e-01  -1.0102991417097619e-01  -1.7161359957960531e-02  -1.5650383384418323e-01  -5.6788059682100811e-01  -4.7095727238988033e-01  -2.9719475450975064e-01  -2.9656054914464508e-01  -4.7112512934545270e-01  -9.6433084226138222e-02  -1.7419387002167892e-02  -6.1896501713139124e-02  -3.4859789421863928e-02  -5.6930257346698732e-01  -1.5761926154881324e-03  -7.1487476349748700e-03  -5.7310827654894092e-01  -9.8354793550054415e-02  -3.8569760333703851e-02  -9.3256609510432575e-03  -3.1049543049903299e-03  -1.3666080106497312e-03  -6.6924143055089591e-03  -1.1853519729289625e-02  -1.1049492941079261e-01  -1.4047614126928244e-03  -4.9500429516054856e-01  -5.6123124223352694e-01  -2.0831547788054947e-02  -7.2245962907611268e-03  -4.9512402772298281e-01  -2.2939879215002784e-01  -3.8977529574269681e-01  -3.8978124358323585e-01  -2.1645952334171101e-01  -3.4255959798004717e-03  -2.9684690721702586e-02  -7.1809809238938038e-02  -5.7115011224423584e-01  -7.1141876186321129e-01  -5.3824878302270107e-01  -5.6938703110974020e-01  -5.6490745657945585e-01  -3.6940576303143933e-03  -6.0952692596938574e-01  -1.5223570064327563e-01  -6.2280439333626192e-01  -1.3076567047561938e-02  -3.3676315630133714e-03  -1.1781536803031012e-01  -1.7159837394934787e-02  -6.0102673373523174e-01  -1.0341036136666754e-01  -5.3894524958238665e-01  -5.8119139742357029e-01  -6.9536938127426673e-01  -5.5616315906917557e-01  -6.7682766048980138e-03  -1.1736340008008797e-01  -6.6814374689878353e-01  -1.1689130269568265e-01  -6.7176839579102987e-01  -5.4396062694291973e-02  -1.2419407431397045e-01  -6.4400216666678556e-02  -3.8262268141243616e-02  -5.6310991513804343e-01  -5.9481003322403336e-01  -5.6877464171020109e-01  -5.6162520831161944e-01  -5.8307967060973312e-02  -5.6946443328861229e-01  -1.3228171782202324e-02  -5.6350042435080475e-02  -5.6877494177894039e-01  -5.5717584037655477e-01  -5.7075178533904392e-01  -4.5863501868032650e-03  -5.6643405953243531e-01  -2.1970003938930827e-02  -2.2589708318253524e-02  -5.7994167725728496e-01  -6.5486549130019389e-02  -7.8475263678596446e-02  -7.1948775239033269e-01  -5.7316253998695954e-01  -1.2081535884249975e-03  -5.7915968187113553e-01  -2.9476274376998346e-02  -5.5508540312271315e-01  -6.1077578000141275e-01  -4.6756140255489725e-03  -3.8587475380939706e-02  -1.6897778590746509e-02  -5.5081707455652451e-01  -5.5024525875701802e-01  -5.6942218596707317e-01  -1.8699975992392391e-02  -2.0084380679816771e-01  -1.9579326585991688e-01  -5.5777301101687833e-03  -3.7367103687943531e-01  -3.7367091917233702e-01  -5.1342959316284642e-01  -6.7915531013872498e-03  -1.7552830642389763e-01  -4.3561193869375917e-02  -8.9905543766052951e-04  -9.8252130139734510e-04  -1.0551123056977457e-02  -2.1186302451107014e-01  -1.6868516729203237e-01  -1.2587256675475944e-02  -4.3175979527064739e-03  -4.3958664598773532e-03  -1.7081418915139580e-02  -6.1265800036445869e-02  -6.3163252175432438e-01  -1.1469552061998706e-02  -5.1300807832283657e-01  -6.0447904447533307e-01  -5.8437261307035544e-03  -8.9630274734879764e-03  -2.3449680785695096e-03  -8.0293132632476366e-02  -7.2277564406528050e-02  -9.4109941386453302e-02  -2.1814433078746970e-01  -9.9255049231800514e-03  -5.6669069747368772e-01  -3.7330222538371288e-02  -5.8866703042576041e-01  -5.6848100395343060e-01  -9.5590060556213913e-03  -9.6918896110748859e-02  -5.6670990853199454e-01  -5.4922186442539467e-01  -1.1171435331306527e-01  -5.6215645252209767e-01  -9.4465756383893540e-03  -1.0795120892294476e-01  -2.2714959107449667e-02  -4.4671590667513567e-01  -3.1883090103683848e-01  -3.1716040757400593e-01  -4.4665865935240001e-01  -2.2406227382645746e-02  -5.4394808098978042e-01  -7.6874561798716684e-03  -1.2056253943878539e-01  -8.8209906485375638e-04  -5.6758062940389875e-01  -6.7166886229808254e-01  -5.5094961115087193e-01  -3.8322860817428403e-02  -2.7739846025599268e-02  -3.7228627168115081e-03  -6.0829207712792066e-01  -3.8364536034707519e-02  -5.6667419219245030e-01  -5.7083505143726365e-01  -5.6695333652077839e-01  -6.3024456844724430e-01  -6.5544947640521556e-01  -6.0536847439783256e-02  -6.8850825439757905e-03  -9.3867990468693638e-02  -2.4047179685639356e-02  -5.7257052257699603e-01  -8.4594118950522795e-02  -9.8228111637799362e-02  -1.0976979523285618e-03  -2.1303745858346646e-03  -1.0264832320718570e-01  -8.3677036504636718e-02  -2.5610833800873032e-03  -8.3761611945488215e-03  -5.6695162000728527e-01  -1.0554176321244842e-02  -4.0177724432097814e-02  -6.0482340146257796e-01  -5.6254216318420769e-01  -5.6892945382421778e-01  -1.2457715281762857e-01  -5.6702610476943371e-01  -1.9859776214354464e-03  -3.8877209274860193e-03  -7.2075256249751096e-01  -7.8075852008765934e-02  -4.9223338370106631e-02  -2.8626507721715218e-02  -5.6866445881679373e-01  -5.7123018919660231e-03  -4.9325879580842166e-03  -5.4954143992598037e-01  -5.4587374062568284e-01  -5.6959852180357395e-01  -7.4093422270021933e-04  -9.5019557253049503e-02  -1.3607009434917994e-02  -1.3547155621210075e-02  -8.2027361847653538e-02  -3.0080925922695598e-02  -6.4362526435840761e-01  -2.8393265005455033e-02  -6.7072323667364958e-02  -5.6903309389907164e-01  -1.1276955198238553e-01  -5.2318874543484362e-01  -5.9070852634644377e-01  -5.7689724483329829e-01  -1.7334446276907469e-02  -6.1860767407479946e-03  -1.6452842306880661e-01  -6.4861208897745129e-04  -5.6933157409704105e-01  -5.6884828530433540e-01  -1.6637243718578838e-02  -5.8006580030650556e-01  -5.7347792588300617e-01  -5.6466578928457134e-01  -4.6972698897304127e-02  -5.6513609086377803e-01  -5.6573743080466454e-01  -5.6443044780173224e-01  -5.7988958382548320e-03  -1.4905077503750402e-02  -2.3891352654670820e-03  -1.3484955989063274e-01  -5.2291109749912179e-01  -8.8223957586325424e-02  -8.1810104980347673e-02  -5.6890783936730127e-01  -8.1838882311708223e-03  -4.6393522371262347e-01  -4.6356844971377820e-01  -2.6045695643305528e-01  -2.5879130388821575e-01  -2.7014521676187307e-02  -2.1073397060867929e-02  </DataArray> 
</PointData> 
</Piece>
</UnstructuredGrid>
</VTKFile>