<?xml version="1.0"?>
<VTKFile type="UnstructuredGrid"  version="0.1"  >
<UnstructuredGrid>
<Piece  NumberOfPoints="406" NumberOfCells="722">
<Points>
<DataArray  type="Float64"  NumberOfComponents="3"  format="ascii">-6 -2 0  -6 2 0  6 2 0  6 -2 0  -2.8 0 0  -1.2 0 0  -5.500000000001853 -2 0  -5.000000000003705 -2 0  -4.500000000005556 -2 0  -4.000000000007409 -2 0  -3.50000000000926 -2 0  -3.000000000011112 -2 0  -2.500000000012963 -2 0  -2.000000000014814 -2 0  -1.500000000016665 -2 0  -1.000000000018516 -2 0  -0.5000000000203677 -2 0  -2.204547655537681e-11 -2 0  0.4999999999796305 -2 0  0.9999999999814779 -2 0  1.499999999983327 -2 0  1.999999999985175 -2 0  2.499999999987029 -2 0  2.999999999988882 -2 0  3.499999999990735 -2 0  3.999999999992589 -2 0  4.49999999999444 -2 0  4.999999999996293 -2 0  5.499999999998147 -2 0  6 -1.500000000001387 0  6 -1.000000000002774 0  6 -0.5000000000041616 0  6 -5.505595979116151e-12 0  6 0.4999999999958384 0  6 0.9999999999972258 0  6 1.499999999998613 0  5.500000000001853 2 0  5.000000000003705 2 0  4.500000000005556 2 0  4.000000000007409 2 0  3.50000000000926 2 0  3.000000000011112 2 0  2.500000000012963 2 0  2.000000000014814 2 0  1.500000000016665 2 0  1.000000000018516 2 0  0.5000000000203677 2 0  2.204547655537681e-11 2 0  -0.4999999999796305 2 0  -0.9999999999814779 2 0  -1.499999999983327 2 0  -1.999999999985175 2 0  -2.499999999987029 2 0  -2.999999999988882 2 0  -3.499999999990735 2 0  -3.999999999992589 2 0  -4.49999999999444 2 0  -4.999999999996293 2 0  -5.499999999998147 2 0  -6 1.500000000001387 0  -6 1.000000000002774 0  -6 0.5000000000041616 0  -6 5.505595979116151e-12 0  -6 -0.4999999999958384 0  -6 -0.9999999999972258 0  -6 -1.499999999998613 0  -2.776753453941174 -0.1914525314286965 0  -2.708364820523325 -0.3717785376335722 0  -2.598808598538216 -0.5304981265911284 0  -2.454451797386757 -0.65838709271366 0  -2.283683909636528 -0.748012994147384 0  -2.096429344207466 -0.7941670992780535 0  -1.903570655798842 -0.7941670992788195 0  -1.716316090368095 -0.7480129941491368 0  -1.545548202616307 -0.6583870927157747 0  -1.401191401463757 -0.530498126593356 0  -1.291635179477527 -0.371778537635196 0  -1.223246546059047 -0.1914525314295925 0  -1.223246546058803 0.1914525314286035 0  -1.291635179476594 0.3717785376334188 0  -1.401191401461634 0.5304981265909601 0  -1.545548202612898 0.6583870927134221 0  -1.716316090363093 0.7480129941472402 0  -1.903570655792394 0.7941670992780367 0  -2.096429344201276 0.7941670992788055 0  -2.283683909631911 0.7480129941491347 0  -2.454451797383697 0.6583870927157729 0  -2.598808598536385 0.530498126593196 0  -2.70836482052258 0.3717785376349917 0  -2.776753453940975 0.1914525314295042 0  0.4588466633941945 0.2704149791022056 0  -4.424312812173863 0.2760319703992994 0  -3.803977598762586 -0.6841584599595646 0  -0.1330968762779425 -0.6798763971615133 0  2.451109587541276 3.169800318630399e-13 0  -3.563610936250569 0.5929994091167295 0  4.204753319582647 0.2820669554523581 0  -0.4390897559348154 0.6178095532273566 0  -3.041446812595122 1.175550440315544 0  -0.9622132806516797 1.132103015222783 0  1.069493318942931 -0.773608156980569 0  -4.924330687080279 -0.7127064269610045 0  -3.024693497948964 -1.195179289656404 0  -0.9648749555625579 -1.256854520022574 0  -3.443624282349383 -0.2044158249759613 0  -0.5611500783757608 -0.1747080110423833 0  1.60270880116926 0.7487034276124258 0  3.488352576142236 -0.8228939860777884 0  4.816375011670135 -0.8163750116689444 0  3.243628045085357 0.8578172796997985 0  -4.228632884234073 1.228069101636678 0  -2.365220384435482 -1.356128547810356 0  -1.637465979486354 1.3571687267915 0  -1.642380978561139 -1.359365080147485 0  -2.362988915989869 1.356737096243695 0  -5.134120367293631 0.8356299802910161 0  2.077496878467794 -0.9514080034522553 0  4.960859291178299 0.9608592911785537 0  0.3293120056474302 1.148965409695154 0  -5.157560560414062 0.09447106214747865 0  -3.14779387667392 -0.6330563038825547 0  -3.148134455585257 0.4354299640428653 0  -0.8464439673630421 0.4159277415926296 0  -0.9918125625721008 -0.7191748422889824 0  -4.355349213295776 -1.234510499778242 0  1.582074659164868 -0.06850205959954866 0  2.400584045214166 1.204278622181321 0  5.102831660739063 0.03453404176596848 0  4.083259768981113 1.154272958349666 0  -3.992394834362243 -0.1621022234411988 0  0.4290302718942113 -1.225465289645401 0  -3.681487986394671 -1.310544246656267 0  -3.640289698916164 1.187023654838123 0  0.468851680921228 -0.447055967952278 0  3.315209904217932 0.05667935655546536 0  -2.541160649745046 -1.046980928586996 0  -1.45196684542695 1.044189935346116 0  -2.000844595891861 -1.207983108473125 0  -1.453092202970521 -1.061139264918894 0  -2.000050543938391 1.207806685704176 0  -2.548033154566413 1.04418993534851 0  4.13054585796652 -1.232871249381608 0  -0.3301617095463629 1.221692405319566 0  -0.2880491989587189 -1.359626628407983 0  -0.0758941643813178 0.132275811829787 0  2.826389221580753 -1.233168480096227 0  -2.922070412327736 0.7575752117792038 0  1.003070890178416 1.271347915034201 0  -5.319521816151902 -1.310543894393663 0  -1.070407062963812 0.7877698545098388 0  -4.562499863038985 -0.2302396981426722 0  -3.164226661545047 0.07179577787350272 0  -0.9091377812900333 0.132454654016971 0  4.116029045943655 -0.4851826871817362 0  5.316659189209927 -1.316659189208741 0  -0.9498828454673396 -0.4149758979014553 0  -4.037769805263969 0.6896174350675625 0  1.431664772855882 -1.327784137638992 0  -3.646693623568034 0.1600006358878044 0  -2.878371345483476 -0.7910345833001061 0  1.062603041385242 0.2894765870627741 0  -0.547955103783681 0.1635272504420374 0  -4.804809838419659 1.41016301576038 0  -3.042895319571192 -0.3694931303482478 0  -4.59252578392403 0.792267765362792 0  2.823271260730033 -0.5472430318427347 0  -4.28575390662405 -0.7521491832384866 0  -0.5524005545121191 -0.9037367558558163 0  1.815219025072439 1.388812135783969 0  -1.288398729718543 -0.8178399475601057 0  -5.424388493366639 1.35375165044146 0  -2.256991952837567 -1.049538527273222 0  -1.739586738723494 -1.052327527873255 0  -1.738827359988536 1.050180627239116 0  -2.257795730428802 1.049701225145305 0  -0.62222340523776 -0.5483611729237363 0  2.065188519029698 0.5424877383589943 0  0.1055865106318892 0.7347782870471022 0  1.013082573993895 -0.2061877611231605 0  -5.428323520618333 -0.4386412085227075 0  5.374041502384443 -0.5304401760993408 0  3.435185060219232 -1.377658617395091 0  -3.302377238490527 0.8841390072780534 0  -0.9902123298072768 -0.124175295282554 0  0.7186958547669859 0.8724503317343631 0  2.941237214953417 1.390391532351976 0  4.708037787864423 -1.340276032051348 0  5.395029680982659 1.395029680983341 0  3.591022587550188 1.348260650408605 0  2.759385971589342 0.4857447325740718 0  -0.6832705231418494 0.8879387563573758 0  5.437781298507145 0.5981501503262471 0  -2.698603003287285 1.617130043745112 0  -3.463358189947519 -1.013588318179017 0  1.710866040171871 -0.6978716337870808 0  3.642182982762737 0.4555704362064124 0  -2.699802128031161 -1.618310703146212 0  -1.3020054856637 1.619819977935582 0  -2.000000000004996 -1.566396763829867 0  -1.999999999994794 1.566396763830688 0  -1.247812462071684 -1.595232739507426 0  4.59429106759859 1.420052135572917 0  0.9448382581152466 -1.440259145469251 0  -0.116376100998861 -0.2606209011258676 0  -4.774521510507792 0.4245390872783272 0  -2.983910172370106 -0.1208000607277856 0  -3.353983741142061 1.576062863985777 0  -5.473352579109997 0.4917619255280954 0  -4.828650470275986 -1.493148538517745 0  4.639973657165532 -0.2833178611094909 0  -2.660279445404468 0.7699932347178977 0  -1.335045190775955 0.7744876666923373 0  -3.395669172689978 0.2584951122361346 0  2.279110606119369 -1.465899541383697 0  4.734317729212562 0.4520963557364723 0  -0.6334913028224612 1.584213953723378 0  2.121854101359879 -0.4289611127787379 0  -3.474459720833238 -0.4977581316675216 0  -1.066539898844178 0.3411379476537602 0  -3.361849707555382 -1.611428512420182 0  -4.099039818938317 0.3306400369415774 0  -2.935324777364672 0.354721898811665 0  -3.973578595052027 1.482940358734671 0  3.784450148635689 -0.0702780807301525 0  -1.191348122671212 -0.5614501189722798 0  -2.838672605956353 -0.5493179047027598 0  -1.184983441257359 0.5617520886612424 0  -2.811184099847449 0.5574240755049175 0  0.2702752249355158 -0.8003643570420809 0  -0.6945947797857237 -1.593893965175195 0  0.001175881878679056 1.504521009023778 0  0.6072931735145096 1.501814722697789 0  -3.991896293645949 -1.047264188412552 0  -3.734097395159253 -0.3261671578666079 0  -5.539652387691843 -0.8857154182585802 0  -4.395061924111849 1.563293728588296 0  0.2258327611651416 -0.08745142624872881 0  -3.774816634825771 0.8676973328379478 0  2.208484493569073 1.6256686312487 0  0.1309939514660535 -1.566169703482512 0  -5.551414360955331 0.9459842275970113 0  -4.04734138658365 -1.51163984963472 0  -4.947145019546805 -0.3299925153029702 0  4.320410447198621 0.6970857582435144 0  -4.707557346727139 -1.000565649857444 0  1.353711468973986 1.582551234446199 0  1.674156483558973 0.3266252271732694 0  -4.039105552973997 -0.4537604746027087 0  0.01051727619263377 -1.088858357362194 0  -0.2234942609176301 0.8619127912343982 0  -2.95903482691863 0.1219373374385197 0  -4.682467695920681 0.0804575682243254 0  5.535750224195656 -0.1525732643419722 0  -4.290083947414376 -0.0005258314026840717 0  1.136102562417988 0.7655312464039168 0  -2.816589394567214 0.9927597419785312 0  -2.645374456162409 -0.7645902451387543 0  4.18414576655837 1.624276131878667 0  0.7127337088822223 -0.9006358935856398 0  1.972418102153911 0.9727040774616764 0  -2.42199174813501 0.8591219219254587 0  -2.418604734200992 -0.8552987735117754 0  -5.573597213364169 -0.03612430678117123 0  2.024792870869397 0.05574071630590883 0  -1.578875191508968 0.861424470724936 0  -1.54706008231699 -0.8630049102346303 0  3.848662181064435 -1.569601980075533 0  -2.000000000003871 -0.9746445732264465 0  -1.99999999
[...]
<PointData  Scalars="f_24"> 
<DataArray  type="Float64"  Name="f_24"  format="ascii">9.8610345977623504e-01  9.8610345977623504e-01  0.0000000000000000e+00  0.0000000000000000e+00  4.5231453375586517e-01  6.7723604072835863e-01  9.2792094920672219e-01  8.7123247150695204e-01  8.1309402534420239e-01  7.5557810519321600e-01  6.9804819716539213e-01  6.4318535095206608e-01  5.9837428884643873e-01  6.0311450651566278e-01  6.4683877345156948e-01  6.8232239727448163e-01  6.8219079298676844e-01  6.5622904226718992e-01  6.1360609104678732e-01  5.6419230426207156e-01  5.1163400546455218e-01  4.5710496325783478e-01  4.0030503702673853e-01  3.4475665605450129e-01  2.8751718918250402e-01  2.3016157973456508e-01  1.7267707899563164e-01  1.1513485278483884e-01  5.8161174914751423e-02  0.0000000000000000e+00  0.0000000000000000e+00  0.0000000000000000e+00  0.0000000000000000e+00  0.0000000000000000e+00  0.0000000000000000e+00  0.0000000000000000e+00  5.8115150029635347e-02  1.1532522376590069e-01  1.7269405866225032e-01  2.3058381432287153e-01  2.8743421783183859e-01  3.4442231485498298e-01  4.0094915831498734e-01  4.5705023544213036e-01  5.1128879407753214e-01  5.6423214176048986e-01  6.1352787236762862e-01  6.5566247232082731e-01  6.8290416361245476e-01  6.8177373848736400e-01  6.4745612698529909e-01  6.0302890968459544e-01  5.9835454128073140e-01  6.4322558914366157e-01  6.9790989079484089e-01  7.5545957124388996e-01  8.1367339896156476e-01  8.7066364576868782e-01  9.2809577341187055e-01  9.8610345977623504e-01  9.8610345977623504e-01  9.8610345977623504e-01  9.8610345977623504e-01  9.8610345977623504e-01  9.8610345977623504e-01  9.8610345977623504e-01  4.5105976989361052e-01  4.4717172886597256e-01  4.6387197486134207e-01  5.0761445096761315e-01  5.6738957480206720e-01  6.3796877296156307e-01  6.9851036408235478e-01  7.3488226635870657e-01  7.3798986967742808e-01  7.2010041573810546e-01  6.9752767519394121e-01  6.8227889018226540e-01  6.8213498434239350e-01  6.9740715519149810e-01  7.2009539567061243e-01  7.3891904438827216e-01  7.3549731859650624e-01  6.9838255166493923e-01  6.3800585438961288e-01  5.6778221095844594e-01  5.0697257607039070e-01  4.6430520522126884e-01  4.4905953387696873e-01  4.4942826612610454e-01  5.9807296170247493e-01  7.9790543943868852e-01  7.2410757911195711e-01  6.4251938501126082e-01  4.0233868754347896e-01  6.8587014312527084e-01  2.0590885281720361e-01  6.5687558842903393e-01  6.5351893546886175e-01  6.6797243115634175e-01  5.4808563042847258e-01  8.6110757538030791e-01  6.5303565743989456e-01  6.6646070057738616e-01  6.4747668997751850e-01  6.5928222210397980e-01  4.9443940869702224e-01  2.8768169811470912e-01  1.3610919961334733e-01  3.1543812786846659e-01  7.8377398697304246e-01  6.0684749531254478e-01  6.2702737864406943e-01  6.2654682266497830e-01  6.0684981962419049e-01  8.8593808225507453e-01  4.4491244682060893e-01  1.1960728945314335e-01  6.1759374913805032e-01  8.8709854076793548e-01  6.1875889856376198e-01  5.9634636888430503e-01  6.7251690498029448e-01  6.7804355305164510e-01  7.9811222525497461e-01  4.9411133832611265e-01  4.1033423948660408e-01  1.0308946279735255e-01  2.2028686293731153e-01  7.3882284747389115e-01  6.1032716759358330e-01  7.2459377591821095e-01  7.1898281712329515e-01  5.9853091604502562e-01  3.0659185550647228e-01  5.9082172773839725e-01  6.6059954787316311e-01  6.0233906861564845e-01  6.5909156208277142e-01  6.0240220655171395e-01  5.9052804823239846e-01  2.1482763933074983e-01  6.5902417317631989e-01  6.5900799841686519e-01  6.3466414019321171e-01  3.6285015778602497e-01  5.9165689722196391e-01  5.5828253959903740e-01  9.0792685991804301e-01  6.7796134223172377e-01  8.1509420667279597e-01  5.7825620126461796e-01  6.7252779445098276e-01  2.1609345418178710e-01  7.8794129315605047e-02  6.7693398930014126e-01  7.5409931631511051e-01  5.1530237901456688e-01  6.8407018644901574e-01  5.8978860332055760e-01  5.4549926305875995e-01  6.5875253215927643e-01  8.4918880201880331e-01  5.6170389009124433e-01  8.2253827379430045e-01  3.6195566177883065e-01  7.8588659471666522e-01  6.6322876606298897e-01  4.7478306195340497e-01  6.8726849879827889e-01  9.1995702180219308e-01  5.8456628334061922e-01  6.4166898052552279e-01  6.4211109860709159e-01  5.8458895555058543e-01  6.6400536882456940e-01  4.4483694787947897e-01  6.2862243293165110e-01  5.4978458897694638e-01  9.1971031094942679e-01  7.1995270246277526e-02  2.9426802815495179e-01  6.6546269318386386e-01  6.7534849079396497e-01  5.8167062299864636e-01  3.5018844189494724e-01  1.4869139307788121e-01  6.9752331343094248e-02  2.7652350947241611e-01  3.6896615108232017e-01  6.6698496488249193e-01  6.4675049613616600e-02  6.3247572961606169e-01  6.9363428959499684e-01  4.8300918017578726e-01  2.6991484600007909e-01  6.3250880479863536e-01  6.5284081279745976e-01  6.1074468337146515e-01  6.1078001223235112e-01  6.5658732417842836e-01  1.6174848861665786e-01  5.6520428071226270e-01  6.3743644527656373e-01  8.4197720116767927e-01  5.2189590937730335e-01  6.9126898338350251e-01  9.2486806900463170e-01  8.5187379588553647e-01  1.5615423058934449e-01  5.4666109370617022e-01  6.9526171821000549e-01  6.4078743188161857e-01  4.2425798175471391e-01  1.4540819076871969e-01  6.7078245163491435e-01  4.3841456105749466e-01  6.6668027055366674e-01  6.8222598016294977e-01  6.9127693853296790e-01  7.5552911447612225e-01  5.2594009947290177e-01  7.5630657966859594e-01  2.5363183970849712e-01  6.9385231678230364e-01  5.3138489052086679e-01  6.9391759605897418e-01  5.2413161503553218e-01  6.1808270370103569e-01  6.7252246521777648e-01  6.4454717743134859e-01  5.9699244493936465e-01  7.5560261100391313e-01  7.0237903836702509e-01  9.3299676071784143e-01  8.0273609447657579e-01  6.1487930956924386e-01  7.2574577718554056e-01  4.3247247612129497e-01  6.3706459981369024e-01  9.3434231402761403e-01  7.6430532354592284e-01  8.6241504474840680e-01  1.9286066968943633e-01  8.3731528733856242e-01  5.2454786331753389e-01  4.8532315436752616e-01  7.4941868255637412e-01  6.3957682758349477e-01  6.4991501288371911e-01  5.1246344693162149e-01  8.2973196365698376e-01  5.3354019230087701e-02  7.7937749688642166e-01  5.4158606997408865e-01  6.1157170686576501e-01  5.4324748925631483e-01  2.0896666347242801e-01  5.8262087993852141e-01  4.5641303127141980e-01  5.5325428411489319e-01  5.5337138243810846e-01  9.3662925999909852e-01  4.4818575737336636e-01  6.9576393730285491e-01  6.9454070450784156e-01  2.4727234336861481e-01  6.2380070536933441e-01  6.2385248817412298e-01  6.3027410941873729e-01  2.6958323835872328e-01  6.7000187705745939e-01  5.7943725761106635e-01  4.5398844654111148e-02  4.7890434189896421e-02  3.6215495091692840e-01  6.5492643092601932e-01  6.6931093068491065e-01  3.9573221153867144e-01  1.8683502354584575e-01  2.0101431385452542e-01  4.8173933573852135e-01  6.2374818929656006e-01  6.1826959502693635e-01  3.5518483186810157e-01  6.3068230085856092e-01  6.2190220027652299e-01  2.3976867804409827e-01  3.1194238519364398e-01  1.1529567121273863e-01  6.4876147349164570e-01  6.3918401573705586e-01  6.6695140964662769e-01  6.5315370230193026e-01  3.7240589604802743e-01  6.4792504992315014e-01  6.0040056380693663e-01  7.1257973929487628e-01  9.3927656691835304e-01  3.2397800069113769e-01  6.6872520740003583e-01  8.5040434824873401e-01  6.8616224497962541e-01  6.6653855395550421e-01  8.0880154927949366e-01  3.3603579485013146e-01  6.7091693095115756e-01  5.3206499740576318e-01  6.1087777669551024e-01  6.2781967050744325e-01  6.2818536280546011e-01  6.1089124881205059e-01  5.1261869060359899e-01  6.8539237064991709e-01  3.1644632058205213e-01  6.6801663496400421e-01  4.5617802237936100e-02  8.8208501256140059e-01  5.6563176446511321e-01  7.2728209096099827e-01  5.8977763129929084e-01  5.2196182536392233e-01  1.6532816433034525e-01  6.4338473542029107e-01  5.6900390988739957e-01  8.8927960005719020e-01  8.2360664120371507e-01  8.9600980223411153e-01  6.3622919771394193e-01  5.9418310455355439e-01  6.2007244758098456e-01  2.6160522488626237e-01  6.6242647378001007e-01  5.1574192732657242e-01  7.9236635081853790e-01  6.5311623502056393e-01  6.7740874950886509e-01  4.8582604200880876e-02  1.0883995303530668e-01  6.8524950325942569e-01  6.6382722916167680e-01  1.1189505207915379e-01  3.3096537871568033e-01  8.8254585083376647e-01  3.8419351262349771e-01  5.7421398218059883e-01  6.8674696883007158e-01  7.5337052227471157e-01  9.5097642630760792e-01  6.6996789282851954e-01  7.8761018139491912e-01  9.5176824040438548e-02  1.6213592184715950e-01  4.9736594488911867e-01  6.6319324720720407e-01  6.0295485685575967e-01  5.6634160178642090e-01  9.4498046754386478e-01  2.5311217335102043e-01  1.9802026690964242e-01  7.2316151277847385e-01  6.1279553956803023e-01  8.8114319034829980e-01  3.9146281118953789e-02  6.6701446960962762e-01  3.9333784415639839e-01  4.0475448663855607e-01  6.5051444329572394e-01  5.2661011027909410e-01  5.7244827411430210e-01  5.4637818975780938e-01  6.4206914876572063e-01  9.5586947124428634e-01  6.7967992699853252e-01  6.6157253797715887e-01  7.2668184164284622e-01  7.8144459456394344e-01  4.7097772732730453e-01  2.5737804699756539e-01  6.6609514230874123e-01  3.3572239561375145e-02  9.5613514541737521e-01  8.9360104303302468e-01  4.8326276475446800e-01  6.7792174183263276e-01  6.9433813468959515e-01  8.4415152838010521e-01  6.2532941383337437e-01  6.4231044636454460e-01  7.2458140268709326e-01  8.1748505653929526e-01  2.3357449903798208e-01  4.1087538918540684e-01  1.0509529413882400e-01  7.1255797647287777e-01  6.6147296506558206e-01  6.5579749528555487e-01  6.5346735430731973e-01  8.5513612384559357e-01  3.1553469339468782e-01  5.9033057921420162e-01  5.9055172480303453e-01  6.8368632951146457e-01  6.8416269003671570e-01  5.1688972181856396e-01  4.7313881039920441e-01  </DataArray> 
</PointData> 
</Piece>
</UnstructuredGrid>
</VTKFile>