<?xml version="1.0"?>
<VTKFile type="UnstructuredGrid"  version="0.1"  >
<UnstructuredGrid>
<Piece  NumberOfPoints="622" NumberOfCells="1116">
<Points>
<DataArray  type="Float64"  NumberOfComponents="3"  format="ascii">-6 -2 0  -6 2 0  6 2 0  6 -2 0  -2.8 0 0  -1.2 0 0  -5.500000000001853 -2 0  -5.000000000003705 -2 0  -4.500000000005556 -2 0  -4.000000000007409 -2 0  -3.50000000000926 -2 0  -3.000000000011112 -2 0  -2.500000000012963 -2 0  -2.000000000014814 -2 0  -1.500000000016665 -2 0  -1.000000000018516 -2 0  -0.5000000000203677 -2 0  -2.204547655537681e-11 -2 0  0.4999999999796305 -2 0  0.9999999999814779 -2 0  1.499999999983327 -2 0  1.999999999985175 -2 0  2.499999999987029 -2 0  2.999999999988882 -2 0  3.499999999990735 -2 0  3.999999999992589 -2 0  4.49999999999444 -2 0  4.999999999996293 -2 0  5.499999999998147 -2 0  6 -1.500000000001387 0  6 -1.000000000002774 0  6 -0.5000000000041616 0  6 -5.505595979116151e-12 0  6 0.4999999999958384 0  6 0.9999999999972258 0  6 1.499999999998613 0  5.500000000001853 2 0  5.000000000003705 2 0  4.500000000005556 2 0  4.000000000007409 2 0  3.50000000000926 2 0  3.000000000011112 2 0  2.500000000012963 2 0  2.000000000014814 2 0  1.500000000016665 2 0  1.000000000018516 2 0  0.5000000000203677 2 0  2.204547655537681e-11 2 0  -0.4999999999796305 2 0  -0.9999999999814779 2 0  -1.499999999983327 2 0  -1.999999999985175 2 0  -2.499999999987029 2 0  -2.999999999988882 2 0  -3.499999999990735 2 0  -3.999999999992589 2 0  -4.49999999999444 2 0  -4.999999999996293 2 0  -5.499999999998147 2 0  -6 1.500000000001387 0  -6 1.000000000002774 0  -6 0.5000000000041616 0  -6 5.505595979116151e-12 0  -6 -0.4999999999958384 0  -6 -0.9999999999972258 0  -6 -1.499999999998613 0  -2.796147781337886 -0.07841371226233997 0  -2.784628224322852 -0.1560722576115546 0  -2.765552268586196 -0.2322277418021561 0  -2.739103626009626 -0.30614674589063 0  -2.705537011479457 -0.3771173894593519 0  -2.665175689843037 -0.4444561864141836 0  -2.618408362691456 -0.5075146273293722 0  -2.565685424950688 -0.5656854249477874 0  -2.507514627332613 -0.6184083626887972 0  -2.444456186417533 -0.6651756898407991 0  -2.377117389462776 -0.7055370114776264 0  -2.306146745894456 -0.7391036260080417 0  -2.232227741806235 -0.7655522685849585 0  -2.15607225761588 -0.784628224321992 0  -2.078413712266957 -0.7961477813374315 0  -2.000000000003407 -0.7999999999999998 0  -1.921586287739523 -0.7961477813380696 0  -1.843927742389945 -0.7846282243231506 0  -1.767772258198879 -0.7655522685865098 0  -1.693853254109962 -0.7391036260098718 0  -1.622882610540873 -0.7055370114795768 0  -1.555543813585629 -0.6651756898429115 0  -1.49248537267008 -0.6184083626910072 0  -1.434314575051535 -0.5656854249500112 0  -1.381591637310384 -0.5075146273316149 0  -1.334824310158267 -0.4444561864161359 0  -1.294462988521423 -0.3771173894609975 0  -1.260896373990956 -0.3061467458920351 0  -1.234447731414138 -0.2322277418032578 0  -1.215371775677287 -0.156072257612254 0  -1.203852218662147 -0.07841371226267954 0  -1.203852218662115 0.07841371226235888 0  -1.215371775677132 0.156072257611478 0  -1.234447731413795 0.232227741802127 0  -1.260896373990353 0.3061467458905811 0  -1.294462988520456 0.3771173894591898 0  -1.334824310156812 0.444456186413959 0  -1.381591637308413 0.5075146273292139 0  -1.434314575049147 0.5656854249476236 0  -1.492485372667197 0.6184083626886415 0  -1.555543813582104 0.6651756898405565 0  -1.62288261053673 0.7055370114773629 0  -1.693853254105125 0.7391036260078683 0  -1.767772258193396 0.7655522685848468 0  -1.84392774238373 0.7846282243219146 0  -1.921586287732977 0.7961477813374253 0  -1.999999999996558 0.8 0  -2.078413712260516 0.7961477813380661 0  -2.156072257610207 0.7846282243231205 0  -2.232227741801178 0.7655522685864928 0  -2.306146745890059 0.7391036260098632 0  -2.377117389459098 0.7055370114795929 0  -2.444456186414405 0.6651756898428894 0  -2.50751462732998 0.6184083626909587 0  -2.565685424948549 0.5656854249499272 0  -2.61840836268981 0.5075146273313792 0  -2.665175689841831 0.4444561864159886 0  -2.705537011478692 0.3771173894607835 0  -2.739103626009108 0.3061467458918818 0  -2.76555226858589 0.2322277418031643 0  -2.784628224322724 0.1560722576122001 0  -2.796147781337853 0.07841371226267957 0  0.6720367661319522 0.1312687487860887 0  -4.389489086394485 0.3544472233398538 0  -3.816221554046232 -0.6097988664512611 0  -3.552726516474419 0.9342959806851625 0  -0.2536610443052337 0.8162373554653355 0  -0.1843238977799138 -0.6649951410982842 0  -3.613359951620445 0.1086570650978273 0  -3.146954163409593 -1.074378179335012 0  -0.4255266515582625 0.07734891565364931 0  -0.9413731612925856 1.168014724254929 0  -2.947764053183577 1.200029094390044 0  -0.8319852757411681 -1.058626838707328 0  2.675418990747819 -1.137325591670363e-12 0  -2.602010642259726 -1.287560129290477 0  -2.334401622060699 1.335006108940604 0  -1.524718496628401 1.32890816230333 0  -1.369813829148039 -1.26145150481762 0  -3.294065651892671 -0.4630240940010318 0  -2.072749204569071 -1.388981302138359 0  -0.7546165313921411 0.5601792161340381 0  -3.224879719581335 0.4382689715877901 0  -0.7073137361349826 -0.4625305410752652 0  4.326242945813966 0.3262429458150917 0  -3.187880061217201 0.07437712177460168 0  -2.94792024259867 0.7030255657465158 0  -2.678809277907896 0.9152683582887104 0  -4.911626141576894 -0.5700186648601188 0  -2.980647654587299 -0.5685006168686053 0  -2.769438919323564 -0.8202775213660614 0  -1.936950121013948 1.220669938589229 0  -0.8971643766260747 0.2762459428874499 0  -0.8760878018253068 -0.06836412137772707 0  -1.086827485441145 0.6772548942594016 0  -1.31355927028917 0.8808768148414213 0  -1.034266382739347 -0.5912381576649568 0  -1.241594139118264 -0.836771920085274 0  1.667161185638911 -0.6367996576268693 0  1.778189842800902 0.7191719841256095 0  -3.065106827511819 -0.266795371500425 0  3.714311277362231 -0.7275465302492842 0  -1.728329421201519 -1.09954751473283 0  4.870629493137888 -0.7325040699186681 0  -3.024707894719303 0.2567561910603656 0  -4.375540207252226 1.228935704312058 0  -2.272077148001781 -1.086192861256262 0  3.351408248797803 0.9175227128129597 0  -5.141847419540732 0.8091901960109126 0  0.5769368286199241 1.111816231125821 0  0.7411482978492124 -1.079569101289617 0  -1.074013749991219 0.430231207546053 0  -1.04664573441257 -0.3358382377487088 0  -2.439195336951085 0.9224778883059374 0  -2.902607676587358 0.4360473765597399 0  -1.629450174302152 1.035617385691805 0  -2.146859933125513 1.032375363966426 0  2.587625196444542 -0.9999926061845814 0  -2.529286802957126 -0.8830616815739111 0  -1.493798157676768 -0.8794705728517196 0  -1.932158132383022 -1.026681566564148 0  -4.09956359341904 -0.1372485582942864 0  5.055802064425553 1.050933510837308 0  -4.413659685984891 -1.207626391697488 0  -4.961411026474009 0.1201902955685026 0  -3.771151641156835 -1.303594976371997 0  -3.001321503506133 -0.04919177107285733 0  -3.881733605683001 0.5124517634812003 0  -0.1971627317996802 -1.336445372382849 0  -2.742825060181767 0.6732573903735507 0  2.520439429199979 1.129372838786189 0  -1.026326428668429 0.1384273198437734 0  -2.779290004861729 -0.5844691722665721 0  -2.895095740820851 -0.4261289730972082 0  -1.275682076193407 0.6630703172777138 0  0.1045291701958869 0.3433373435296472 0  5.175560481258801 0.0608563229178163 0  -1.211574424201636 -0.5847362589868093 0  -1.85847006217035 1.007917631940711 0  4.152535916385823 1.131901130662082 0  -1.04878257200685 -0.1253529988863012 0  1.432836501626023 0.05634449574318775 0  3.560672936003603 0.01188897172456759 0  -3.351823698389408 -0.1821329582635926 0  -5.145153363200735 -1.259166339382508 0  0.03473693330309885 -0.1724947236036572 0  -4.377830921337186 -0.6172564090242229 0  -0.3943750728122595 1.410897156959435 0  -1.661073679471639 -0.9342065000197183 0  -1.49086536677686 0.8331714487926741 0  -2.584486130952032 0.7871482690034864 0  4.270535884593893 -1.259607924744415 0  -1.757417028085795 -1.505182186951191 0  -3.430586920998477 1.425579221231371 0  -2.917598827418652 -0.2298465409534677 0  -2.328978331116049 -0.9300959620317677 0  -2.148543000691344 -0.9751580214451921 0  1.002654111360038 -0.4521702885594788 0  -4.628651824080903 -0.1127998710567241 0  -2.948904386702482 0.1555943115410545 0  0.4165242577134774 -0.5629432649478633 0  -3.698137692471105 -0.3173027948676715 0  -3.491400684461791 -0.7926319721650269 0  -0.3844454817728994 0.4680628696134375 0  -3.207830713508533 0.9778749990559993 0  3.229909751065535 -1.326302454776001 0  5.330007715336748 -1.312905173261894 0  -2.649214054100534 -0.713314536278899 0  1.342022964818772 -1.328315248672686 0  -2.556460939068198 1.202372762828344 0  -0.3497819755044588 -0.3080427614060888 0  -4.928440909495523 1.387622767511967 0  1.309170811945155 1.337467055109531 0  -1.352031940181449 -0.7151198948590243 0  -0.6132855723904642 0.9519045895123004 0  4.266838388406324 -0.3707357390867402 0  -3.834389788310238 1.371594798941152 0  -1.187890214580146 0.4851427123079557 0  -1.109118888029193 0.3185947354467283 0  0.1837819401738013 1.234799661476361 0  1.108165254659559 0.6237223548284967 0  -0.5266600156584522 -0.8113991260886402 0  -4.643822083543982 0.7834094684931707 0  -1.146235204666366 -0.4027330721405781 0  2.049029845992713 -0.2664662499985428 0  2.002665761665898 -1.328912351029848 0  -1.678783505586872 0.8978832065736417 0  -2.049499525232052 0.9483890761590005 0  -2.229972236535132 0.9181006323151361 0  -3.033763529945482 -1.54240494280775 0  -3.562344364746847 0.5622550957224539 0  -5.524396842903405 -0.2709714867672603 0  -0.9710982764034376 -1.549038578476423 0  3.058819320130555 -0.5375106252795963 0  -4.170365230099585 0.7342553699229977 0  -1.045878746461381 -8.187420622554697e-05 0  -1.864822945411764 -0.9219031104673102 0  -0.6251005091687033 -0.2120650512195049 0  2.317562622406059 0.4886417799113238 0  -0.6674371191466613 0.1483993095055008 0  -2.705757882979874 1.609712312948224 0  
[...]
<PointData  Scalars="f_24"> 
<DataArray  type="Float64"  Name="f_24"  format="ascii">9.9999997369128968e-01  9.9999997369128968e-01  9.9999997369128968e-01  9.9999997369128968e-01  4.3957312450535496e-01  8.5058493482404329e-01  9.8391365829016630e-01  9.6826545442199896e-01  9.5253325600741134e-01  9.3841426704308928e-01  9.2502035385840375e-01  9.0832927966273591e-01  8.8209800566657071e-01  8.2681709480917076e-01  7.7900115926491409e-01  8.6350045350629112e-01  1.0123831030118151e+00  1.1119208131416902e+00  1.1561524184334631e+00  1.1609781415736657e+00  1.1505249074675017e+00  1.1347171544011423e+00  1.1180226149676264e+00  1.1005413306689660e+00  1.0845355765724263e+00  1.0666438405220582e+00  1.0508385695088989e+00  1.0329219579356930e+00  1.0172620012710880e+00  9.9999997369128968e-01  9.9999997369128968e-01  9.9999997369128968e-01  9.9999997369128968e-01  9.9999997369128968e-01  9.9999997369128968e-01  9.9999997369128968e-01  1.0170444424661176e+00  1.0331117465947668e+00  1.0508891308336721e+00  1.0663975637746892e+00  1.0842556637222751e+00  1.1015609852405579e+00  1.1173553211454939e+00  1.1347751583709589e+00  1.1507685241392822e+00  1.1612832534149722e+00  1.1568791839801484e+00  1.1145436932015556e+00  1.0164067350362436e+00  8.5461432117449598e-01  8.0383316960545481e-01  8.3088639280021437e-01  8.8032384865544211e-01  9.0734844000169412e-01  9.2413668234062996e-01  9.3726401767546619e-01  9.5240524729542431e-01  9.6778830096341839e-01  9.8360022559101490e-01  9.9999997369128968e-01  9.9999997369128968e-01  9.9999997369128968e-01  9.9999997369128968e-01  9.9999997369128968e-01  9.9999997369128968e-01  9.9999997369128968e-01  4.4240346800258379e-01  4.5150405390377824e-01  4.4821448146944692e-01  4.6481041246528737e-01  4.6285788714371628e-01  5.0186649924034943e-01  4.9228157410784534e-01  5.4516048807330586e-01  5.3355658997992306e-01  5.9370262615498670e-01  6.0523059071211449e-01  6.6864386042620594e-01  6.9690831898811378e-01  7.3907218248994033e-01  7.5777268917347629e-01  7.6389949195689688e-01  7.4920557508346852e-01  7.1282882589534335e-01  6.7013520739824750e-01  6.3298588837411296e-01  6.1636528939808832e-01  6.1782708277577347e-01  6.3876639588206929e-01  6.6812914106856125e-01  7.0342606536820929e-01  7.3843782749721498e-01  7.7080795223465992e-01  7.9903105267089924e-01  8.2080617550273061e-01  8.3706255418559272e-01  8.4749275802587865e-01  8.4746861701445597e-01  8.3758287180135815e-01  8.2184517456735851e-01  7.9935242080492019e-01  7.7175916408730583e-01  7.3923857823651196e-01  7.0392326406240147e-01  6.6880939031008457e-01  6.3857957735516580e-01  6.1845430925845524e-01  6.1756520964926864e-01  6.3652883503593038e-01  6.7446764540788195e-01  7.1985813651210051e-01  7.5585589109669193e-01  7.7212035105590648e-01  7.6813347150302980e-01  7.3766756200986217e-01  7.1448127301754849e-01  6.6817935436184717e-01  6.0901410491490293e-01  5.5190374400430842e-01  5.6693100232373561e-01  4.9465431298049445e-01  5.0986427499044262e-01  4.8773117033775326e-01  4.7160915040180112e-01  4.5496452526640258e-01  4.6396598642574644e-01  4.4494486612661438e-01  4.4430974202135098e-01  1.1448995822401127e+00  9.4162187795173957e-01  9.1942873378900691e-01  9.1814914886258925e-01  1.0195031694983461e+00  1.0326612284634560e+00  8.9275096431610979e-01  9.1357445757305689e-01  9.8773072271859574e-01  7.2997397792475649e-01  9.0929397206587925e-01  7.9436427240780949e-01  1.1109739112582200e+00  8.8588137485506746e-01  8.4819986971955252e-01  6.1023381620705663e-01  5.7281719752993310e-01  8.7040414929562082e-01  8.0300343993442758e-01  8.8051574975352376e-01  8.5467073115680270e-01  9.0205058651096881e-01  1.0561241869117555e+00  8.1047844502081678e-01  8.4968604129276593e-01  8.4131281084065612e-01  9.6246195306391225e-01  8.1901857354953667e-01  8.3384497013232983e-01  7.0862426028994052e-01  8.6957206006047816e-01  8.8783983120649712e-01  7.3775066264735634e-01  5.7550613568215325e-01  7.7823615292088921e-01  6.1760341910896877e-01  1.1431623469986281e+00  1.1397362753325129e+00  7.7702094091963247e-01  1.0766012144964896e+00  6.0775184834264362e-01  1.0379176620340231e+00  7.5571456525713299e-01  9.4725896394520726e-01  7.6793801406343098e-01  1.0888264310720526e+00  9.7085123294754128e-01  1.1442165404669371e+00  1.1511257061198314e+00  8.0370279774383258e-01  8.2777719607879008e-01  7.5633200031696002e-01  7.4327528193414505e-01  5.7839798066244530e-01  7.3474431584365418e-01  1.1142680317769984e+00  7.7248535878799374e-01  5.6567559609856932e-01  6.8004008650281211e-01  9.2706962316422226e-01  1.0316848927540654e+00  9.4885293244632340e-01  9.6336120433947692e-01  9.3188172036901862e-01  7.1134364377050563e-01  9.2045527644440983e-01  1.0477458013236463e+00  7.6671894871485513e-01  1.1165961868978793e+00  8.5766192090746651e-01  7.3502860622832400e-01  7.3037239102907769e-01  6.7964550796911871e-01  1.0855348942599452e+00  1.0276600784198406e+00  7.2401542495324989e-01  6.6534725771590464e-01  1.0618554749590028e+00  8.5538704561181400e-01  1.1494461695264455e+00  1.0816927854668017e+00  8.5752581711460674e-01  9.7213424939258808e-01  1.0750649951147155e+00  9.4311693615251868e-01  1.0041759621526882e+00  5.9813138745958938e-01  5.8052865348079419e-01  7.4678724340953206e-01  1.0580355918266653e+00  7.2608191712397152e-01  9.2368073188001898e-01  6.7247664602496771e-01  7.3302756443310702e-01  7.2094534115019659e-01  1.1544021001092146e+00  9.5069972540320558e-01  6.7910938625264772e-01  1.1233897077874160e+00  9.0423952325991142e-01  9.1092243399367490e-01  9.8968436638597712e-01  9.0930549898149182e-01  1.0930004796664656e+00  1.0225633774187011e+00  7.3662708493674089e-01  1.1525678642146933e+00  8.7114122541213179e-01  1.0006423218705496e+00  9.6511011240151634e-01  1.1538819775779432e+00  6.3922589825066101e-01  9.0991273624170066e-01  1.0581070956203193e+00  9.3302290595441673e-01  7.6145451522970731e-01  8.1944715194773321e-01  1.1081669178403568e+00  1.1538830709596901e+00  9.4404002069862336e-01  9.5353943654281814e-01  7.9247885828849229e-01  1.1311978142353403e+00  1.1337792594116129e+00  6.1566814109933277e-01  7.1636604093026091e-01  7.1405181935015238e-01  9.1258624620216422e-01  9.0309112789680068e-01  9.8368453601373984e-01  8.0690761624154572e-01  1.0984036454253296e+00  9.3614181868653545e-01  8.6108699468003769e-01  6.8087997748690454e-01  9.3908819248350295e-01  1.1228478868739626e+00  9.3084297521705806e-01  8.9509867558307565e-01  1.1358985484126303e+00  7.2722540989222495e-01  6.5850861608618749e-01  8.9314844636214052e-01  8.8906040582591905e-01  9.8559933365472396e-01  1.0951178508893153e+00  7.7177707072901791e-01  8.8793056242010571e-01  8.0985456693236824e-01  9.1792727309963196e-01  6.2221784504332733e-01  9.1065533977976998e-01  6.5016356617470428e-01  8.0156949984887715e-01  8.3451240328527088e-01  1.0983128617145537e+00  1.0220698559846682e+00  8.8595377113266272e-01  1.0982505130957203e+00  8.4957163426848359e-01  9.8256991404628613e-01  8.0397073190907431e-01  1.1357726884211414e+00  1.0789859263794288e+00  8.6354224603546681e-01  8.9229181648503064e-01  6.6954495941883574e-01  9.0173678930611245e-01  1.0206911651136250e+00  6.8722076087665429e-01  6.7979985163998558e-01  5.6298416603971757e-01  8.1197554004138239e-01  1.1038903675091207e+00  8.7541935251361336e-01  7.3866433850325908e-01  9.7811154523746791e-01  6.0771779931251291e-01  6.0512585027847210e-01  6.2497057328334005e-01  6.1100182337392239e-01  1.0191045773857559e+00  9.2817785524297136e-01  1.0708702145449795e+00  7.0094992998741246e-01  7.1299267202231731e-01  9.5593784048348196e-01  1.0450881786606205e+00  6.8802855900656090e-01  6.6280293246296595e-01  6.8253022931815854e-01  6.1123517890951251e-01  6.1861398900470266e-01  6.8396113557128257e-01  1.0759984285762931e+00  1.0402694621812101e+00  9.3609372447797712e-01  9.0043207804118786e-01  8.3945810601365256e-01  9.2333898197341280e-01  5.4403353831960310e-01  8.8825119526411678e-01  6.6754442654096691e-01  6.0962989938785261e-01  8.3386056498673067e-01  9.1649533176222220e-01  8.1488248961719922e-01  1.0402712980785389e+00  7.2248267890538964e-01  7.8873973188567259e-01  1.1594164449161928e+00  1.1086111397035612e+00  9.5956735294882756e-01  7.5700512354626137e-01  7.8319837484458477e-01  8.4643641831087935e-01  1.1451159814938652e+00  7.2966681029605229e-01  7.1192095811452494e-01  6.8738226076537756e-01  1.1289888016223784e+00  8.8623264813182157e-01  7.1386925828000181e-01  5.8865285608723950e-01  6.0128310260662055e-01  9.4271041535826661e-01  9.4245175581586316e-01  1.1547613593560482e+00  6.6200038601243283e-01  8.4974894965273018e-01  6.1014050954624388e-01  8.9811126720306456e-01  8.4566345938947096e-01  8.1072554711066214e-01  9.5874262814844835e-01  1.1598792330636980e+00  6.4800613259774842e-01  1.1284743264125379e+00  5.7605246309070968e-01  1.1365615457898275e+00  7.3857018045988221e-01  8.4605235510177179e-01  9.5100547690620552e-01  1.0423325732436979e+00  6.2936803621602322e-01  9.1197409931932216e-01  6.8499768015874396e-01  9.8527843349947908e-01  1.1137399341108005e+00  6.1384175433366195e-01  7.2119367929861988e-01  6.3052641570003931e-01  9.8715271564161455e-01  9.6942135208234659e-01  8.2441038444495829e-01  1.0268748898068802e+00  7.1025088963812666e-01  8.6048839308157843e-01  6.0882991696873778e-01  9.3383054976251967e-01  6.7280448393811199e-01  7.0943661109095868e-01  9.2992140161142844e-01  6.8523897430157543e-01  6.0800373928885731e-01  6.7839316293153606e-01  5.2870077587362307e-01  8.2182259419560144e-01  6.2628997333427439e-01  1.0326810287490689e+00  7.0335754168616860e-01  5.3698016797806769e-01  6.3640915994732972e-01  8.8063936924203390e-01  8.3064460402430373e-01  9.2590174634350253e-01  7.4279783525719534e-01  1.0666961235663641e+00  1.0477868324810395e+00  7.9990120059607839e-01  6.8461511510472717e-01  8.8127020089854946e-01  6.6438291289131279e-01  8.5764063795406975e-01  8.9665629976364658e-01  8.1241267275286921e-01  8.4894781435731193e-01  7.4080936033713030e-01  1.1222927190071732e+00  9.2989381742149901e-01  8.4367327144134929e-01  1.0537410890552192e+00  9.3038778135939892e-01  9.1786510960855339e-01  8.4035902956232067e-01  7.9792391616034908e-01  1.0500649359562759e+00  9.4009062305003166e-01  7.2039613302304162e-01  1.0140902161077667e+00  9.6525293748881513e-01  8.5213319023891076e-01  9.7565783741903844e-01  1.1553111393236450e+00  8.2805630056526314e-01  8.5236173227811418e-01  7.3327380697148270e-01  1.0592045211026755e+00  7.5791940491179854e-01  8.2888301044517099e-01  9.2137562015608432e-01  1.0125803018532313e+00  6.5724177798120298e-01  7.7010312864677710e-01  1.1292519854759528e+00  8.6060628908797032e-01  9.3039652246780891e-01  1.0973161529994533e+00  6.2283987965603604e-01  1.0149028954806880e+00  1.1502626127617495e+00  6.5246657735686586e-01  6.4988547984416745e-01  9.5403738101543833e-01  7.1097668702572758e-01  7.4294592574447804e-01  5.6747864203420595e-01  6.4999391725948086e-01  1.1446854335089300e+00  1.0973788786013878e+00  1.0854207700370522e+00  1.1038493408502665e+00  9.5820292443681310e-01  1.0873899103756868e+00  8.9646865834571732e-01  9.0855156089524036e-01  9.5235540651581796e-01  9.2047803151014285e-01  9.9046568595590923e-01  9.8091975694832401e-01  8.8314812004015875e-01  1.0824525510189431e+00  1.1492766547181437e+00  8.8563038390913373e-01  1.1553467329187457e+00  9.5264600741744954e-01  1.1431705113267352e+00  1.1261789333437970e+00  9.7713402712896591e-01  8.6123203126895609e-01  9.6909999943863723e-01  1.0317561457392781e+00  7.9920351356335251e-01  1.1002474668185898e+00  1.1071764768714567e+00  7.5416530072268850e-01  1.1468814663411446e+00  5.5561217398697205e-01  9.2938411672395804e-01  1.0287359098760427e+00  6.4120640046198840e-01  9.3632396685507291e-01  1.0134861065877752e+00  1.0589508160454657e+00  1.1234015639967538e+00  1.1436662508037148e+00  9.4842480583056343e-01  1.0319798261663549e+00  1.1464578174961775e+00  7.0032197616827696e-01  5.7543248314935302e-01  1.1096143957708338e+00  9.2008205866498749e-01  8.9481982292701001e-01  1.0701066294575963e+00  8.3230178321738035e-01  8.8460522174281708e-01  7.6931096823219702e-01  8.3907857319569246e-01  9.0524931050155399e-01  9.6558933643900813e-01  7.0032823156510637e-01  9.3375601105763739e-01  9.4534588520140606e-01  7.0228456579337872e-01  9.5518015690885494e-01  1.0439717103109165e+00  6.7771327435546180e-01  1.0721145186089112e+00  9.1792179004476848e-01  8.8947525704864572e-01  7.2852458303868706e-01  8.8773209277817677e-01  9.3746709598452238e-01  1.0439808586282462e+00  7.7302667692627225e-01  7.8990111179808697e-01  6.3768497331039642e-01  8.1286133213133771e-01  7.2756577666107547e-01  1.1241967408242353e+00  8.7323875176999488e-01  7.5686045234927790e-01  7.3351463964541230e-01  6.1394332865462942e-01  9.4468876085380660e-01  1.0765674057559851e+00  8.8402154240120034e-01  6.2841914935577925e-01  7.8634556382233012e-01  9.3635210205691888e-01  9.2696261782676148e-01  8.1093990105252367e-01  1.0119369940955645e+00  9.8867146716393839e-01  9.7312707152417155e-01  1.0927127344716863e+00  1.1562705688195751e+00  1.1345152838996964e+00  1.0263171106200999e+00  9.8852021247876820e-01  1.0947032698971240e+00  1.1443681125990397e+00  9.1793096890903780e-01  1.1560726547005873e+00  9.0720050566633270e-01  9.5403966493662296e-01  8.8401335176875440e-01  7.0368641998644188e-01  1.0928495236464875e+00  7.2936637066995647e-01  6.6782724150595274e-01  9.3948505050061082e-01  1.0294173230108818e+00  9.1536106595917788e-01  1.1569389195069899e+00  1.1455372949133182e+00  9.1593752082717328e-01  1.1542396473876690e+00  1.1147851093329924e+00  1.0731501377445873e+00  8.1237206481410540e-01  1.0863873320234905e+00  9.7954958381260449e-01  5.4914962512015553e-01  1.1257607316186540e+00  7.8268227321286676e-01  1.0548592127410990e+00  1.0098265311812866e+00  7.9757605069337112e-01  7.5210579880520212e-01  8.4027524566564027e-01  9.1952684848595956e-01  1.0564876768495917e+00  6.3422122359810440e-01  1.1505901451117693e+00  8.8635739995611773e-01  9.6165644899342395e-01  5.5562095362196373e-01  9.4640925596652326e-01  5.9124007823262936e-01  5.7094241079616248e-01  9.6295228808986300e-01  1.0837191069113705e+00  1.0683612625513277e+00  8.6918308832212787e-01  1.0105698304164350e+00  1.0659484534154431e+00  1.1424929594825957e+00  8.6163221460932160e-01  6.5304992722468558e-01  9.0897387614298542e-01  9.0068820161034724e-01  6.3407583830256942e-01  7.0863425953238812e-01  1.0450443719150813e+00  6.8857855421080472e-01  9.9078863613957335e-01  9.3952739444931932e-01  7.7351170104162081e-01  9.1276875119818324e-01  9.7021767364491018e-01  7.6804700431352824e-01  7.0109038140734181e-01  9.8938037570484372e-01  1.0538932470985414e+00  1.1224014355787431e+00  9.0032502412201021e-01  9.2108934894692618e-01  8.5228939438949436e-01  9.7407454468804777e-01  8.1673920989163917e-01  7.4926246733298962e-01  9.6730984375620876e-01  </DataArray> 
</PointData> 
</Piece>
</UnstructuredGrid>
</VTKFile>