<?xml version="1.0"?>
<VTKFile type="UnstructuredGrid"  version="0.1"  >
<UnstructuredGrid>
<Piece  NumberOfPoints="622" NumberOfCells="1116">
<Points>
<DataArray  type="Float64"  NumberOfComponents="3"  format="ascii">-6 -2 0  -6 2 0  6 2 0  6 -2 0  -2.8 0 0  -1.2 0 0  -5.500000000001853 -2 0  -5.000000000003705 -2 0  -4.500000000005556 -2 0  -4.000000000007409 -2 0  -3.50000000000926 -2 0  -3.000000000011112 -2 0  -2.500000000012963 -2 0  -2.000000000014814 -2 0  -1.500000000016665 -2 0  -1.000000000018516 -2 0  -0.5000000000203677 -2 0  -2.204547655537681e-11 -2 0  0.4999999999796305 -2 0  0.9999999999814779 -2 0  1.499999999983327 -2 0  1.999999999985175 -2 0  2.499999999987029 -2 0  2.999999999988882 -2 0  3.499999999990735 -2 0  3.999999999992589 -2 0  4.49999999999444 -2 0  4.999999999996293 -2 0  5.499999999998147 -2 0  6 -1.500000000001387 0  6 -1.000000000002774 0  6 -0.5000000000041616 0  6 -5.505595979116151e-12 0  6 0.4999999999958384 0  6 0.9999999999972258 0  6 1.499999999998613 0  5.500000000001853 2 0  5.000000000003705 2 0  4.500000000005556 2 0  4.000000000007409 2 0  3.50000000000926 2 0  3.000000000011112 2 0  2.500000000012963 2 0  2.000000000014814 2 0  1.500000000016665 2 0  1.000000000018516 2 0  0.5000000000203677 2 0  2.204547655537681e-11 2 0  -0.4999999999796305 2 0  -0.9999999999814779 2 0  -1.499999999983327 2 0  -1.999999999985175 2 0  -2.499999999987029 2 0  -2.999999999988882 2 0  -3.499999999990735 2 0  -3.999999999992589 2 0  -4.49999999999444 2 0  -4.999999999996293 2 0  -5.499999999998147 2 0  -6 1.500000000001387 0  -6 1.000000000002774 0  -6 0.5000000000041616 0  -6 5.505595979116151e-12 0  -6 -0.4999999999958384 0  -6 -0.9999999999972258 0  -6 -1.499999999998613 0  -2.796147781337886 -0.07841371226233997 0  -2.784628224322852 -0.1560722576115546 0  -2.765552268586196 -0.2322277418021561 0  -2.739103626009626 -0.30614674589063 0  -2.705537011479457 -0.3771173894593519 0  -2.665175689843037 -0.4444561864141836 0  -2.618408362691456 -0.5075146273293722 0  -2.565685424950688 -0.5656854249477874 0  -2.507514627332613 -0.6184083626887972 0  -2.444456186417533 -0.6651756898407991 0  -2.377117389462776 -0.7055370114776264 0  -2.306146745894456 -0.7391036260080417 0  -2.232227741806235 -0.7655522685849585 0  -2.15607225761588 -0.784628224321992 0  -2.078413712266957 -0.7961477813374315 0  -2.000000000003407 -0.7999999999999998 0  -1.921586287739523 -0.7961477813380696 0  -1.843927742389945 -0.7846282243231506 0  -1.767772258198879 -0.7655522685865098 0  -1.693853254109962 -0.7391036260098718 0  -1.622882610540873 -0.7055370114795768 0  -1.555543813585629 -0.6651756898429115 0  -1.49248537267008 -0.6184083626910072 0  -1.434314575051535 -0.5656854249500112 0  -1.381591637310384 -0.5075146273316149 0  -1.334824310158267 -0.4444561864161359 0  -1.294462988521423 -0.3771173894609975 0  -1.260896373990956 -0.3061467458920351 0  -1.234447731414138 -0.2322277418032578 0  -1.215371775677287 -0.156072257612254 0  -1.203852218662147 -0.07841371226267954 0  -1.203852218662115 0.07841371226235888 0  -1.215371775677132 0.156072257611478 0  -1.234447731413795 0.232227741802127 0  -1.260896373990353 0.3061467458905811 0  -1.294462988520456 0.3771173894591898 0  -1.334824310156812 0.444456186413959 0  -1.381591637308413 0.5075146273292139 0  -1.434314575049147 0.5656854249476236 0  -1.492485372667197 0.6184083626886415 0  -1.555543813582104 0.6651756898405565 0  -1.62288261053673 0.7055370114773629 0  -1.693853254105125 0.7391036260078683 0  -1.767772258193396 0.7655522685848468 0  -1.84392774238373 0.7846282243219146 0  -1.921586287732977 0.7961477813374253 0  -1.999999999996558 0.8 0  -2.078413712260516 0.7961477813380661 0  -2.156072257610207 0.7846282243231205 0  -2.232227741801178 0.7655522685864928 0  -2.306146745890059 0.7391036260098632 0  -2.377117389459098 0.7055370114795929 0  -2.444456186414405 0.6651756898428894 0  -2.50751462732998 0.6184083626909587 0  -2.565685424948549 0.5656854249499272 0  -2.61840836268981 0.5075146273313792 0  -2.665175689841831 0.4444561864159886 0  -2.705537011478692 0.3771173894607835 0  -2.739103626009108 0.3061467458918818 0  -2.76555226858589 0.2322277418031643 0  -2.784628224322724 0.1560722576122001 0  -2.796147781337853 0.07841371226267957 0  0.6720367661319522 0.1312687487860887 0  -4.389489086394485 0.3544472233398538 0  -3.816221554046232 -0.6097988664512611 0  -3.552726516474419 0.9342959806851625 0  -0.2536610443052337 0.8162373554653355 0  -0.1843238977799138 -0.6649951410982842 0  -3.613359951620445 0.1086570650978273 0  -3.146954163409593 -1.074378179335012 0  -0.4255266515582625 0.07734891565364931 0  -0.9413731612925856 1.168014724254929 0  -2.947764053183577 1.200029094390044 0  -0.8319852757411681 -1.058626838707328 0  2.675418990747819 -1.137325591670363e-12 0  -2.602010642259726 -1.287560129290477 0  -2.334401622060699 1.335006108940604 0  -1.524718496628401 1.32890816230333 0  -1.369813829148039 -1.26145150481762 0  -3.294065651892671 -0.4630240940010318 0  -2.072749204569071 -1.388981302138359 0  -0.7546165313921411 0.5601792161340381 0  -3.224879719581335 0.4382689715877901 0  -0.7073137361349826 -0.4625305410752652 0  4.326242945813966 0.3262429458150917 0  -3.187880061217201 0.07437712177460168 0  -2.94792024259867 0.7030255657465158 0  -2.678809277907896 0.9152683582887104 0  -4.911626141576894 -0.5700186648601188 0  -2.980647654587299 -0.5685006168686053 0  -2.769438919323564 -0.8202775213660614 0  -1.936950121013948 1.220669938589229 0  -0.8971643766260747 0.2762459428874499 0  -0.8760878018253068 -0.06836412137772707 0  -1.086827485441145 0.6772548942594016 0  -1.31355927028917 0.8808768148414213 0  -1.034266382739347 -0.5912381576649568 0  -1.241594139118264 -0.836771920085274 0  1.667161185638911 -0.6367996576268693 0  1.778189842800902 0.7191719841256095 0  -3.065106827511819 -0.266795371500425 0  3.714311277362231 -0.7275465302492842 0  -1.728329421201519 -1.09954751473283 0  4.870629493137888 -0.7325040699186681 0  -3.024707894719303 0.2567561910603656 0  -4.375540207252226 1.228935704312058 0  -2.272077148001781 -1.086192861256262 0  3.351408248797803 0.9175227128129597 0  -5.141847419540732 0.8091901960109126 0  0.5769368286199241 1.111816231125821 0  0.7411482978492124 -1.079569101289617 0  -1.074013749991219 0.430231207546053 0  -1.04664573441257 -0.3358382377487088 0  -2.439195336951085 0.9224778883059374 0  -2.902607676587358 0.4360473765597399 0  -1.629450174302152 1.035617385691805 0  -2.146859933125513 1.032375363966426 0  2.587625196444542 -0.9999926061845814 0  -2.529286802957126 -0.8830616815739111 0  -1.493798157676768 -0.8794705728517196 0  -1.932158132383022 -1.026681566564148 0  -4.09956359341904 -0.1372485582942864 0  5.055802064425553 1.050933510837308 0  -4.413659685984891 -1.207626391697488 0  -4.961411026474009 0.1201902955685026 0  -3.771151641156835 -1.303594976371997 0  -3.001321503506133 -0.04919177107285733 0  -3.881733605683001 0.5124517634812003 0  -0.1971627317996802 -1.336445372382849 0  -2.742825060181767 0.6732573903735507 0  2.520439429199979 1.129372838786189 0  -1.026326428668429 0.1384273198437734 0  -2.779290004861729 -0.5844691722665721 0  -2.895095740820851 -0.4261289730972082 0  -1.275682076193407 0.6630703172777138 0  0.1045291701958869 0.3433373435296472 0  5.175560481258801 0.0608563229178163 0  -1.211574424201636 -0.5847362589868093 0  -1.85847006217035 1.007917631940711 0  4.152535916385823 1.131901130662082 0  -1.04878257200685 -0.1253529988863012 0  1.432836501626023 0.05634449574318775 0  3.560672936003603 0.01188897172456759 0  -3.351823698389408 -0.1821329582635926 0  -5.145153363200735 -1.259166339382508 0  0.03473693330309885 -0.1724947236036572 0  -4.377830921337186 -0.6172564090242229 0  -0.3943750728122595 1.410897156959435 0  -1.661073679471639 -0.9342065000197183 0  -1.49086536677686 0.8331714487926741 0  -2.584486130952032 0.7871482690034864 0  4.270535884593893 -1.259607924744415 0  -1.757417028085795 -1.505182186951191 0  -3.430586920998477 1.425579221231371 0  -2.917598827418652 -0.2298465409534677 0  -2.328978331116049 -0.9300959620317677 0  -2.148543000691344 -0.9751580214451921 0  1.002654111360038 -0.4521702885594788 0  -4.628651824080903 -0.1127998710567241 0  -2.948904386702482 0.1555943115410545 0  0.4165242577134774 -0.5629432649478633 0  -3.698137692471105 -0.3173027948676715 0  -3.491400684461791 -0.7926319721650269 0  -0.3844454817728994 0.4680628696134375 0  -3.207830713508533 0.9778749990559993 0  3.229909751065535 -1.326302454776001 0  5.330007715336748 -1.312905173261894 0  -2.649214054100534 -0.713314536278899 0  1.342022964818772 -1.328315248672686 0  -2.556460939068198 1.202372762828344 0  -0.3497819755044588 -0.3080427614060888 0  -4.928440909495523 1.387622767511967 0  1.309170811945155 1.337467055109531 0  -1.352031940181449 -0.7151198948590243 0  -0.6132855723904642 0.9519045895123004 0  4.266838388406324 -0.3707357390867402 0  -3.834389788310238 1.371594798941152 0  -1.187890214580146 0.4851427123079557 0  -1.109118888029193 0.3185947354467283 0  0.1837819401738013 1.234799661476361 0  1.108165254659559 0.6237223548284967 0  -0.5266600156584522 -0.8113991260886402 0  -4.643822083543982 0.7834094684931707 0  -1.146235204666366 -0.4027330721405781 0  2.049029845992713 -0.2664662499985428 0  2.002665761665898 -1.328912351029848 0  -1.678783505586872 0.8978832065736417 0  -2.049499525232052 0.9483890761590005 0  -2.229972236535132 0.9181006323151361 0  -3.033763529945482 -1.54240494280775 0  -3.562344364746847 0.5622550957224539 0  -5.524396842903405 -0.2709714867672603 0  -0.9710982764034376 -1.549038578476423 0  3.058819320130555 -0.5375106252795963 0  -4.170365230099585 0.7342553699229977 0  -1.045878746461381 -8.187420622554697e-05 0  -1.864822945411764 -0.9219031104673102 0  -0.6251005091687033 -0.2120650512195049 0  2.317562622406059 0.4886417799113238 0  -0.6674371191466613 0.1483993095055008 0  -2.705757882979874 1.609712312948224 0  
[...]
<PointData  Scalars="f_24"> 
<DataArray  type="Float64"  Name="f_24"  format="ascii">9.9999997500393356e-01  9.9999997500393356e-01  9.9999997500393356e-01  9.9999997500393356e-01  4.4316924339563202e-01  8.6091738716333899e-01  9.8380327293779857e-01  9.6835997160118548e-01  9.5355089627751144e-01  9.4158190545937215e-01  9.3301959699833614e-01  9.2884679150717486e-01  9.2180579468822499e-01  8.9247783751993726e-01  8.3473152615813384e-01  8.6149701679993573e-01  9.7531589241594774e-01  1.0805529517146300e+00  1.1336890303673617e+00  1.1519241040684873e+00  1.1502218111500133e+00  1.1381171896499696e+00  1.1218022767601838e+00  1.1037590369906258e+00  1.0871767009793050e+00  1.0685827454551393e+00  1.0523585612996973e+00  1.0337757302504071e+00  1.0177825439751629e+00  9.9999997500393356e-01  9.9999997500393356e-01  9.9999997500393356e-01  9.9999997500393356e-01  9.9999997500393356e-01  9.9999997500393356e-01  9.9999997500393356e-01  1.0176002425924742e+00  1.0339836904686803e+00  1.0523448805947178e+00  1.0682205660575095e+00  1.0868086381839475e+00  1.1047107331559136e+00  1.1207689462764470e+00  1.1379273938970578e+00  1.1498114649036619e+00  1.1511596642005051e+00  1.1332907650120225e+00  1.0817605861990034e+00  9.8011061640101316e-01  8.5508627248053903e-01  8.5638721828678632e-01  8.9325229327395017e-01  9.2363811508808147e-01  9.2937190735962505e-01  9.3326625025835341e-01  9.4112239913380280e-01  9.5388074857483285e-01  9.6806326592118208e-01  9.8349864521843966e-01  9.9999997500393356e-01  9.9999997500393356e-01  9.9999997500393356e-01  9.9999997500393356e-01  9.9999997500393356e-01  9.9999997500393356e-01  9.9999997500393356e-01  4.4649540542116289e-01  4.5721987753172627e-01  4.5826040071069424e-01  4.7742832885527808e-01  4.8337091741583760e-01  5.2574426280386577e-01  5.2674131283909420e-01  5.8786397779833055e-01  5.8910451468152469e-01  6.6001503891568525e-01  6.8251422052406119e-01  7.5738536946454049e-01  7.9627565079923179e-01  8.5108295273451973e-01  8.8264977025062952e-01  9.0269590242209574e-01  9.0256811929791469e-01  8.7810482038631077e-01  8.4133982724887380e-01  8.0188544202429390e-01  7.7182113386625140e-01  7.5323408366090483e-01  7.5038516133997146e-01  7.5667752750235695e-01  7.7163150435445604e-01  7.8923695758718604e-01  8.0823470502174521e-01  8.2580203069325941e-01  8.4031679728984976e-01  8.5142758192178347e-01  8.5868448565670674e-01  8.5878369507435837e-01  8.5199900236782000e-01  8.4128836039848565e-01  8.2662526345737597e-01  8.0923119770708241e-01  7.9067544328446648e-01  7.7262119719897027e-01  7.5829215708431030e-01  7.5156723051166452e-01  7.5570555579537591e-01  7.7522515831023076e-01  8.0798361944592489e-01  8.4815447766523488e-01  8.8733211211747798e-01  9.0999526843877165e-01  9.1236069181129298e-01  8.9482331282061711e-01  8.5258323991189011e-01  8.1990467285589308e-01  7.6343369280577300e-01  6.9389964160402462e-01  6.2593387081957153e-01  6.2709054310142076e-01  5.4554555687075634e-01  5.4432554862510496e-01  5.1477038969935696e-01  4.9237695293986333e-01  4.7054708737451634e-01  4.7333796764893454e-01  4.5217427722136561e-01  4.4854155567133713e-01  1.1064359703051048e+00  9.3710591772576013e-01  9.1245609091464230e-01  9.1505823678844544e-01  1.0048055291136306e+00  1.0138238029898659e+00  8.7978110069776005e-01  9.1723399503033665e-01  9.6692508525490894e-01  7.0240864901260802e-01  9.2436009730172120e-01  7.5076208155560065e-01  1.1128790015195686e+00  9.2698614719146666e-01  9.1768796461725322e-01  7.3738882457265220e-01  6.8542347113465030e-01  8.5832925324559295e-01  8.9606333939004978e-01  8.7459227495780334e-01  8.4181112707040340e-01  8.9427352890156553e-01  1.0575847090800612e+00  7.9211021873714105e-01  8.5313824237425950e-01  8.8238095584866605e-01  9.6041353255000261e-01  8.1809179544359101e-01  8.6326434181806722e-01  8.4654714919814911e-01  8.7350782136091287e-01  8.8784467744086515e-01  7.7089541096886416e-01  6.9096984152699814e-01  8.0099856945748482e-01  7.0107157279280286e-01  1.1374600361640395e+00  1.1365522802310610e+00  7.6258573031323840e-01  1.0786299554164605e+00  7.8368683088255919e-01  1.0389734640354376e+00  7.4166326824439177e-01  9.4706070184693336e-01  8.7009184239863147e-01  1.0911540643506956e+00  9.6977406545499101e-01  1.1142089994093076e+00  1.1217669018894649e+00  8.2651773250426397e-01  8.4355604968551801e-01  8.4293414514563358e-01  7.4204642869235893e-01  7.5922336261522239e-01  8.5658409608133568e-01  1.1170177904130258e+00  8.4303736414861297e-01  7.2846417637583905e-01  8.3267473058825969e-01  9.1978766324478711e-01  1.0325740600728750e+00  9.4822909695974733e-01  9.6100206452577364e-01  9.3314672717365921e-01  6.9522572999758392e-01  9.1333347169087020e-01  1.0267432651847719e+00  7.9698767084256927e-01  1.1193669568573195e+00  8.6584103273458535e-01  7.5627131433754002e-01  7.3040547200251182e-01  7.5234924854205587e-01  1.0534294487044402e+00  1.0283968875296137e+00  7.7549823806527407e-01  8.3003017324042461e-01  1.0635384209449097e+00  8.6411235803641495e-01  1.1360267971119014e+00  1.0836337609263542e+00  8.4148616653166008e-01  9.7167934894999475e-01  1.0414029329634396e+00  9.3935244757783898e-01  9.7461714630345975e-01  7.7770784685758809e-01  7.3535226872455806e-01  8.0959454794539376e-01  1.0597003081617922e+00  8.3746232428850076e-01  9.3049041370941421e-01  6.6362188371996245e-01  8.3191631542976507e-01  8.4376160834094749e-01  1.1254929556194364e+00  9.4694944851077090e-01  6.6658878724846704e-01  1.0902752933288160e+00  8.9353298977763174e-01  9.0499940131522261e-01  9.7073990797960164e-01  9.0954556154310651e-01  1.0957785835375728e+00  1.0232077980383791e+00  7.8452219901420317e-01  1.1453740532785275e+00  9.2060462165832058e-01  9.7880945311358536e-01  9.6502428570609422e-01  1.1455493808232253e+00  7.3665088327537631e-01  8.7409961800730418e-01  1.0596356831629343e+00  9.3549815220071042e-01  8.0060541470802826e-01  8.3895962154051273e-01  1.0859266303982069e+00  1.1292570386911163e+00  9.2079847166312589e-01  9.5148399624630631e-01  8.2014733617571911e-01  1.1312684035883958e+00  1.1356638051102854e+00  7.9616218800754146e-01  8.5407905477698309e-01  8.2924819626244373e-01  9.2976197145558948e-01  8.9381486144017575e-01  9.8282493589770203e-01  7.9417948516979409e-01  1.1007063496839979e+00  9.3238910359389870e-01  8.6836034310746624e-01  8.4307901896359128e-01  9.2685181264602912e-01  1.1245874940936742e+00  9.2077159931772690e-01  9.2888577714948783e-01  1.1377003978023592e+00  7.4147953519663545e-01  6.5586466975459790e-01  8.9072964470541216e-01  8.8368166032926410e-01  9.8521823293856081e-01  1.0776470224482038e+00  7.9740569406682149e-01  8.8172505647074495e-01  8.8141879599943818e-01  9.0906630044942083e-01  7.3289346549870249e-01  9.0354512024619882e-01  6.6466494186203351e-01  7.8685120014816967e-01  8.4940326216058459e-01  1.0742261144434513e+00  1.0226536211676982e+00  8.8882021874857664e-01  1.1011530718679112e+00  8.3376012546445410e-01  9.8167486973537166e-01  7.8596185109923589e-01  1.1060632236485390e+00  1.0811998086373007e+00  8.4787979564979754e-01  9.0424398025043318e-01  6.9487612555629008e-01  9.2062162606481790e-01  1.0212544107147929e+00  7.6908306811045013e-01  7.3427034673037572e-01  6.6087476989515492e-01  8.0228194725215629e-01  1.1060510454696084e+00  9.2278558027695445e-01  7.4822353897880978e-01  9.7734709298761313e-01  7.7500114931486641e-01  5.9704008480198301e-01  6.2435143992422182e-01  6.5410799747034576e-01  1.0196115446836556e+00  9.2458591317993633e-01  1.0727215497233429e+00  8.1091359638773597e-01  8.4828955630941361e-01  9.5319623169426082e-01  1.0463130675992081e+00  7.7602922959557552e-01  7.0200078754098028e-01  7.4770009527615455e-01  6.0080622741809553e-01  7.4309296694134486e-01  7.6029022296150794e-01  1.0782505062742518e+00  1.0413810793250560e+00  9.3396119136617117e-01  8.9055432792169098e-01  8.3232373759123890e-01  9.2943643564750378e-01  7.1838253829823473e-01  8.8809004569221495e-01  8.4143343446190422e-01  7.7884450528438409e-01  8.4932045270282752e-01  8.7420250649148745e-01  8.8970000037124297e-01  1.0413399613006971e+00  7.8041107373992846e-01  8.1932018228833425e-01  1.1385292335362065e+00  1.1119253418776807e+00  9.5970479204233816e-01  7.9906296742896099e-01  8.8013290474990058e-01  8.5273647444341383e-01  1.1102560178160013e+00  8.5275882773784772e-01  8.3723008951676270e-01  7.9142171114716542e-01  1.1305215866681293e+00  8.5038546310206964e-01  8.6406349252515269e-01  5.8569652191232635e-01  6.0929452849248777e-01  9.4489401602201950e-01  9.4405154480888265e-01  1.1345617428464978e+00  8.3305012529343070e-01  8.5453518954925023e-01  6.1755404534921909e-01  8.8665794406076071e-01  8.5736065011739537e-01  8.3325925960292468e-01  9.5761747933752883e-01  1.1405297355928889e+00  6.8968419069998343e-01  1.0894259859254145e+00  5.6831725999299698e-01  1.1348383047151616e+00  8.0282470235745462e-01  8.5779912752952170e-01  9.3293470538139656e-01  1.0434647404084971e+00  6.5660281977089441e-01  9.3029327759261193e-01  7.6265307819098138e-01  9.8462211929836907e-01  1.1159295299870400e+00  6.3150160741472428e-01  7.7915291512712592e-01  6.6011984044471139e-01  9.8690229834856025e-01  9.5101405191932897e-01  9.0628193368609211e-01  1.0105922336449951e+00  8.5943706030341671e-01  9.0114855645292491e-01  7.5876427038507233e-01  9.2775475619391035e-01  7.5033245472775223e-01  8.3045922045011977e-01  9.2387249687529227e-01  7.8368084515246417e-01  7.5652871463209592e-01  7.7355003381438858e-01  6.9377306442795506e-01  8.0500151500475026e-01  7.9152955497111288e-01  1.0060214988110119e+00  8.6562875625567159e-01  6.6728945533277861e-01  8.0896429673503989e-01  9.2489177689767033e-01  9.0916808350901601e-01  9.2247271063817704e-01  7.2567931012396880e-01  1.0684175268311946e+00  1.0490634946102679e+00  7.8877191639791677e-01  8.2693625614350408e-01  8.6789291363073173e-01  7.3288843104320001e-01  8.4080133574394234e-01  9.2781011312349493e-01  8.1923957538539316e-01  8.6644752742696240e-01  7.3237580640451849e-01  1.1256437387093345e+00  9.2370336854713664e-01  8.5552224285628320e-01  1.0551904129302960e+00  9.3639993955275636e-01  9.2559858608665058e-01  8.2515754158894361e-01  8.0066205573986415e-01  1.0264244433264773e+00  9.3515434706215039e-01  7.0561709632559044e-01  1.0144581046541745e+00  9.6307846801419994e-01  8.6197208293880845e-01  9.7571053805178165e-01  1.1261108311681776e+00  8.3847781664431120e-01  8.6219715782213191e-01  7.8086872127064400e-01  1.0609001021622098e+00  8.7455692282677622e-01  8.9767348591516549e-01  9.2089330825759452e-01  1.0129210852583508e+00  7.1914922383061686e-01  8.0367057561423083e-01  1.1309267784188322e+00  8.5298823351507991e-01  9.3582819884031865e-01  1.0655198810537745e+00  7.4850558452643434e-01  1.0152932547904925e+00  1.1343436184316114e+00  7.0456621929190877e-01  7.5076983762828597e-01  9.5471580280885837e-01  7.5463954542387457e-01  8.2631692249737221e-01  5.6539782491484047e-01  7.4970130953131930e-01  1.1457180118775929e+00  1.0995603485664485e+00  1.0875339657710823e+00  1.1064373796548721e+00  9.5727495932492501e-01  1.0895100170873551e+00  8.4991691496755717e-01  8.9804694641506533e-01  9.1765013137969864e-01  9.2268246340006266e-01  9.6859091373465267e-01  9.8081870375847968e-01  8.7079712278622357e-01  1.0527919370030918e+00  1.1362595435893839e+00  8.7181186551642242e-01  1.1303853960089045e+00  9.4943108734594028e-01  1.1134585106589261e+00  1.1299761195105174e+00  9.7574189674671730e-01  8.6768385861763286e-01  9.6740898261174757e-01  1.0038725835447460e+00  8.4007651742619405e-01  1.1029294467977562e+00  1.0691057014133540e+00  7.6191258761809721e-01  1.1144671875493135e+00  5.5152139679571943e-01  9.1959330638167824e-01  9.9352334625471472e-01  8.1600173148304400e-01  9.0715664380196903e-01  1.0138589357977108e+00  1.0607024475728721e+00  1.1245035698771542e+00  1.1420654109270674e+00  9.4445096815052698e-01  1.0328821416865079e+00  1.1461260515355245e+00  8.2135818923498105e-01  7.5313302774270452e-01  1.1129363067697258e+00  9.3164644147373843e-01  8.8601864095631555e-01  1.0720710169054402e+00  8.9340731851938049e-01  9.1605168412379323e-01  7.9933517278669430e-01  8.5084152592945572e-01  8.9864375611171943e-01  9.4902417636078062e-01  8.4313982369912654e-01  9.2952435438305536e-01  9.4302743473594486e-01  8.1446064804430751e-01  9.3964850906820074e-01  1.0451337202015185e+00  7.4765232009467153e-01  1.0739640699078521e+00  9.1170981787672079e-01  8.8984406745084432e-01  8.6320307284653308e-01  8.7789759504287190e-01  9.3673826606687483e-01  1.0451871571207747e+00  8.0192783159183967e-01  8.5557723988613077e-01  8.1002342061302035e-01  8.3520099774718148e-01  8.2890540749370456e-01  1.0864049612049653e+00  8.7712260699315225e-01  8.0000128961067751e-01  7.2543714007671523e-01  7.4650660829242443e-01  9.4125596625560948e-01  1.0786403431820049e+00  9.2867781882206002e-01  8.0622884344386114e-01  8.1745230792195689e-01  9.2280222869704465e-01  9.2719433140719409e-01  8.2955030910518568e-01  1.0122583790909625e+00  9.8849627560385456e-01  9.7272049745463818e-01  1.0956669691180521e+00  1.1505311686088757e+00  1.1051872710260171e+00  1.0270602615708981e+00  9.8802855438439408e-01  1.0614530806224409e+00  1.1414221287567019e+00  9.3171215372020366e-01  1.1499343862827160e+00  9.2903311487972429e-01  9.5172432244496896e-01  8.6785174996805436e-01  8.6351978655458450e-01  1.0956459794921465e+00  8.3903278877846055e-01  7.0376618102275212e-01  9.3417303591285883e-01  1.0302396400608560e+00  9.2692285085896242e-01  1.1392008972647025e+00  1.1091663715891118e+00  9.0028184046822157e-01  1.1254722949620273e+00  1.1169320793114514e+00  1.0749951678498628e+00  8.8077378772479731e-01  1.0887543960922001e+00  9.6027762218578494e-01  7.1393895070350566e-01  1.0980376708053627e+00  8.3757121537134804e-01  1.0401749534552480e+00  1.0100968852277763e+00  8.1216953541625680e-01  7.2827180698318961e-01  8.4050416674803075e-01  9.1119116501582997e-01  1.0579857951636471e+00  7.2495017321956745e-01  1.1371013146982896e+00  9.0122092496253270e-01  9.5984830457237691e-01  5.6016615806875392e-01  9.4460330716210750e-01  7.1484526271936488e-01  6.5527557715787166e-01  9.6340270216231505e-01  1.0620604961402644e+00  1.0351974782146336e+00  8.7411963925637348e-01  1.0108847553696807e+00  1.0677302659523289e+00  1.1366806111018133e+00  8.6052685826560271e-01  7.2220378161601007e-01  9.0652704106063353e-01  8.9702499070992070e-01  6.7704269614260038e-01  8.4401947622703477e-01  1.0193697732205853e+00  6.7950850864091883e-01  9.9067575058783919e-01  9.3956313238660527e-01  7.5677411040639375e-01  9.0346133164903231e-01  9.7017059335328104e-01  7.4998542655940414e-01  7.0869841182332738e-01  9.8895250419462988e-01  1.0552950284120353e+00  1.1256254343342145e+00  9.2935308243365333e-01  9.1187684055304175e-01  8.5953732244605940e-01  9.7274593695205491e-01  7.7195772725671341e-01  8.3555352409470307e-01  9.6602007450047467e-01  </DataArray> 
</PointData> 
</Piece>
</UnstructuredGrid>
</VTKFile>