<?xml version="1.0"?>
<VTKFile type="UnstructuredGrid"  version="0.1"  >
<UnstructuredGrid>
<Piece  NumberOfPoints="622" NumberOfCells="1116">
<Points>
<DataArray  type="Float64"  NumberOfComponents="3"  format="ascii">-6 -2 0  -6 2 0  6 2 0  6 -2 0  -2.8 0 0  -1.2 0 0  -5.500000000001853 -2 0  -5.000000000003705 -2 0  -4.500000000005556 -2 0  -4.000000000007409 -2 0  -3.50000000000926 -2 0  -3.000000000011112 -2 0  -2.500000000012963 -2 0  -2.000000000014814 -2 0  -1.500000000016665 -2 0  -1.000000000018516 -2 0  -0.5000000000203677 -2 0  -2.204547655537681e-11 -2 0  0.4999999999796305 -2 0  0.9999999999814779 -2 0  1.499999999983327 -2 0  1.999999999985175 -2 0  2.499999999987029 -2 0  2.999999999988882 -2 0  3.499999999990735 -2 0  3.999999999992589 -2 0  4.49999999999444 -2 0  4.999999999996293 -2 0  5.499999999998147 -2 0  6 -1.500000000001387 0  6 -1.000000000002774 0  6 -0.5000000000041616 0  6 -5.505595979116151e-12 0  6 0.4999999999958384 0  6 0.9999999999972258 0  6 1.499999999998613 0  5.500000000001853 2 0  5.000000000003705 2 0  4.500000000005556 2 0  4.000000000007409 2 0  3.50000000000926 2 0  3.000000000011112 2 0  2.500000000012963 2 0  2.000000000014814 2 0  1.500000000016665 2 0  1.000000000018516 2 0  0.5000000000203677 2 0  2.204547655537681e-11 2 0  -0.4999999999796305 2 0  -0.9999999999814779 2 0  -1.499999999983327 2 0  -1.999999999985175 2 0  -2.499999999987029 2 0  -2.999999999988882 2 0  -3.499999999990735 2 0  -3.999999999992589 2 0  -4.49999999999444 2 0  -4.999999999996293 2 0  -5.499999999998147 2 0  -6 1.500000000001387 0  -6 1.000000000002774 0  -6 0.5000000000041616 0  -6 5.505595979116151e-12 0  -6 -0.4999999999958384 0  -6 -0.9999999999972258 0  -6 -1.499999999998613 0  -2.796147781337886 -0.07841371226233997 0  -2.784628224322852 -0.1560722576115546 0  -2.765552268586196 -0.2322277418021561 0  -2.739103626009626 -0.30614674589063 0  -2.705537011479457 -0.3771173894593519 0  -2.665175689843037 -0.4444561864141836 0  -2.618408362691456 -0.5075146273293722 0  -2.565685424950688 -0.5656854249477874 0  -2.507514627332613 -0.6184083626887972 0  -2.444456186417533 -0.6651756898407991 0  -2.377117389462776 -0.7055370114776264 0  -2.306146745894456 -0.7391036260080417 0  -2.232227741806235 -0.7655522685849585 0  -2.15607225761588 -0.784628224321992 0  -2.078413712266957 -0.7961477813374315 0  -2.000000000003407 -0.7999999999999998 0  -1.921586287739523 -0.7961477813380696 0  -1.843927742389945 -0.7846282243231506 0  -1.767772258198879 -0.7655522685865098 0  -1.693853254109962 -0.7391036260098718 0  -1.622882610540873 -0.7055370114795768 0  -1.555543813585629 -0.6651756898429115 0  -1.49248537267008 -0.6184083626910072 0  -1.434314575051535 -0.5656854249500112 0  -1.381591637310384 -0.5075146273316149 0  -1.334824310158267 -0.4444561864161359 0  -1.294462988521423 -0.3771173894609975 0  -1.260896373990956 -0.3061467458920351 0  -1.234447731414138 -0.2322277418032578 0  -1.215371775677287 -0.156072257612254 0  -1.203852218662147 -0.07841371226267954 0  -1.203852218662115 0.07841371226235888 0  -1.215371775677132 0.156072257611478 0  -1.234447731413795 0.232227741802127 0  -1.260896373990353 0.3061467458905811 0  -1.294462988520456 0.3771173894591898 0  -1.334824310156812 0.444456186413959 0  -1.381591637308413 0.5075146273292139 0  -1.434314575049147 0.5656854249476236 0  -1.492485372667197 0.6184083626886415 0  -1.555543813582104 0.6651756898405565 0  -1.62288261053673 0.7055370114773629 0  -1.693853254105125 0.7391036260078683 0  -1.767772258193396 0.7655522685848468 0  -1.84392774238373 0.7846282243219146 0  -1.921586287732977 0.7961477813374253 0  -1.999999999996558 0.8 0  -2.078413712260516 0.7961477813380661 0  -2.156072257610207 0.7846282243231205 0  -2.232227741801178 0.7655522685864928 0  -2.306146745890059 0.7391036260098632 0  -2.377117389459098 0.7055370114795929 0  -2.444456186414405 0.6651756898428894 0  -2.50751462732998 0.6184083626909587 0  -2.565685424948549 0.5656854249499272 0  -2.61840836268981 0.5075146273313792 0  -2.665175689841831 0.4444561864159886 0  -2.705537011478692 0.3771173894607835 0  -2.739103626009108 0.3061467458918818 0  -2.76555226858589 0.2322277418031643 0  -2.784628224322724 0.1560722576122001 0  -2.796147781337853 0.07841371226267957 0  0.6720367661319522 0.1312687487860887 0  -4.389489086394485 0.3544472233398538 0  -3.816221554046232 -0.6097988664512611 0  -3.552726516474419 0.9342959806851625 0  -0.2536610443052337 0.8162373554653355 0  -0.1843238977799138 -0.6649951410982842 0  -3.613359951620445 0.1086570650978273 0  -3.146954163409593 -1.074378179335012 0  -0.4255266515582625 0.07734891565364931 0  -0.9413731612925856 1.168014724254929 0  -2.947764053183577 1.200029094390044 0  -0.8319852757411681 -1.058626838707328 0  2.675418990747819 -1.137325591670363e-12 0  -2.602010642259726 -1.287560129290477 0  -2.334401622060699 1.335006108940604 0  -1.524718496628401 1.32890816230333 0  -1.369813829148039 -1.26145150481762 0  -3.294065651892671 -0.4630240940010318 0  -2.072749204569071 -1.388981302138359 0  -0.7546165313921411 0.5601792161340381 0  -3.224879719581335 0.4382689715877901 0  -0.7073137361349826 -0.4625305410752652 0  4.326242945813966 0.3262429458150917 0  -3.187880061217201 0.07437712177460168 0  -2.94792024259867 0.7030255657465158 0  -2.678809277907896 0.9152683582887104 0  -4.911626141576894 -0.5700186648601188 0  -2.980647654587299 -0.5685006168686053 0  -2.769438919323564 -0.8202775213660614 0  -1.936950121013948 1.220669938589229 0  -0.8971643766260747 0.2762459428874499 0  -0.8760878018253068 -0.06836412137772707 0  -1.086827485441145 0.6772548942594016 0  -1.31355927028917 0.8808768148414213 0  -1.034266382739347 -0.5912381576649568 0  -1.241594139118264 -0.836771920085274 0  1.667161185638911 -0.6367996576268693 0  1.778189842800902 0.7191719841256095 0  -3.065106827511819 -0.266795371500425 0  3.714311277362231 -0.7275465302492842 0  -1.728329421201519 -1.09954751473283 0  4.870629493137888 -0.7325040699186681 0  -3.024707894719303 0.2567561910603656 0  -4.375540207252226 1.228935704312058 0  -2.272077148001781 -1.086192861256262 0  3.351408248797803 0.9175227128129597 0  -5.141847419540732 0.8091901960109126 0  0.5769368286199241 1.111816231125821 0  0.7411482978492124 -1.079569101289617 0  -1.074013749991219 0.430231207546053 0  -1.04664573441257 -0.3358382377487088 0  -2.439195336951085 0.9224778883059374 0  -2.902607676587358 0.4360473765597399 0  -1.629450174302152 1.035617385691805 0  -2.146859933125513 1.032375363966426 0  2.587625196444542 -0.9999926061845814 0  -2.529286802957126 -0.8830616815739111 0  -1.493798157676768 -0.8794705728517196 0  -1.932158132383022 -1.026681566564148 0  -4.09956359341904 -0.1372485582942864 0  5.055802064425553 1.050933510837308 0  -4.413659685984891 -1.207626391697488 0  -4.961411026474009 0.1201902955685026 0  -3.771151641156835 -1.303594976371997 0  -3.001321503506133 -0.04919177107285733 0  -3.881733605683001 0.5124517634812003 0  -0.1971627317996802 -1.336445372382849 0  -2.742825060181767 0.6732573903735507 0  2.520439429199979 1.129372838786189 0  -1.026326428668429 0.1384273198437734 0  -2.779290004861729 -0.5844691722665721 0  -2.895095740820851 -0.4261289730972082 0  -1.275682076193407 0.6630703172777138 0  0.1045291701958869 0.3433373435296472 0  5.175560481258801 0.0608563229178163 0  -1.211574424201636 -0.5847362589868093 0  -1.85847006217035 1.007917631940711 0  4.152535916385823 1.131901130662082 0  -1.04878257200685 -0.1253529988863012 0  1.432836501626023 0.05634449574318775 0  3.560672936003603 0.01188897172456759 0  -3.351823698389408 -0.1821329582635926 0  -5.145153363200735 -1.259166339382508 0  0.03473693330309885 -0.1724947236036572 0  -4.377830921337186 -0.6172564090242229 0  -0.3943750728122595 1.410897156959435 0  -1.661073679471639 -0.9342065000197183 0  -1.49086536677686 0.8331714487926741 0  -2.584486130952032 0.7871482690034864 0  4.270535884593893 -1.259607924744415 0  -1.757417028085795 -1.505182186951191 0  -3.430586920998477 1.425579221231371 0  -2.917598827418652 -0.2298465409534677 0  -2.328978331116049 -0.9300959620317677 0  -2.148543000691344 -0.9751580214451921 0  1.002654111360038 -0.4521702885594788 0  -4.628651824080903 -0.1127998710567241 0  -2.948904386702482 0.1555943115410545 0  0.4165242577134774 -0.5629432649478633 0  -3.698137692471105 -0.3173027948676715 0  -3.491400684461791 -0.7926319721650269 0  -0.3844454817728994 0.4680628696134375 0  -3.207830713508533 0.9778749990559993 0  3.229909751065535 -1.326302454776001 0  5.330007715336748 -1.312905173261894 0  -2.649214054100534 -0.713314536278899 0  1.342022964818772 -1.328315248672686 0  -2.556460939068198 1.202372762828344 0  -0.3497819755044588 -0.3080427614060888 0  -4.928440909495523 1.387622767511967 0  1.309170811945155 1.337467055109531 0  -1.352031940181449 -0.7151198948590243 0  -0.6132855723904642 0.9519045895123004 0  4.266838388406324 -0.3707357390867402 0  -3.834389788310238 1.371594798941152 0  -1.187890214580146 0.4851427123079557 0  -1.109118888029193 0.3185947354467283 0  0.1837819401738013 1.234799661476361 0  1.108165254659559 0.6237223548284967 0  -0.5266600156584522 -0.8113991260886402 0  -4.643822083543982 0.7834094684931707 0  -1.146235204666366 -0.4027330721405781 0  2.049029845992713 -0.2664662499985428 0  2.002665761665898 -1.328912351029848 0  -1.678783505586872 0.8978832065736417 0  -2.049499525232052 0.9483890761590005 0  -2.229972236535132 0.9181006323151361 0  -3.033763529945482 -1.54240494280775 0  -3.562344364746847 0.5622550957224539 0  -5.524396842903405 -0.2709714867672603 0  -0.9710982764034376 -1.549038578476423 0  3.058819320130555 -0.5375106252795963 0  -4.170365230099585 0.7342553699229977 0  -1.045878746461381 -8.187420622554697e-05 0  -1.864822945411764 -0.9219031104673102 0  -0.6251005091687033 -0.2120650512195049 0  2.317562622406059 0.4886417799113238 0  -0.6674371191466613 0.1483993095055008 0  -2.705757882979874 1.609712312948224 0  
[...]
<PointData  Scalars="f_24"> 
<DataArray  type="Float64"  Name="f_24"  format="ascii">9.9999997543162256e-01  9.9999997543162256e-01  9.9999997543162256e-01  9.9999997543162256e-01  4.5558037675371155e-01  8.5992826951326551e-01  9.8436763871834121e-01  9.6951897731186232e-01  9.5540531416909658e-01  9.4425889047092826e-01  9.3661533731495095e-01  9.3388091607289292e-01  9.2956336420000663e-01  9.0585433743047628e-01  8.5043505721788504e-01  8.5397714128722979e-01  9.5373962406396517e-01  1.0612922616342988e+00  1.1182439430229474e+00  1.1388376832486480e+00  1.1410445438923325e+00  1.1329845940153171e+00  1.1184714289377633e+00  1.1013804243733976e+00  1.0851664944296253e+00  1.0669266357141565e+00  1.0511378181487261e+00  1.0328989825593398e+00  1.0173854578739991e+00  9.9999997543162256e-01  9.9999997543162256e-01  9.9999997543162256e-01  9.9999997543162256e-01  9.9999997543162256e-01  9.9999997543162256e-01  9.9999997543162256e-01  1.0172137585647314e+00  1.0331154170434542e+00  1.0511053473197587e+00  1.0665586002574892e+00  1.0847787266138671e+00  1.1022660812784864e+00  1.1175029065476070e+00  1.1327541001697157e+00  1.1405013916078415e+00  1.1379814303358198e+00  1.1180269980625082e+00  1.0634163883629237e+00  9.5744310059071047e-01  8.5150042699157535e-01  8.6562124263468698e-01  9.0555991732604335e-01  9.3069879516069842e-01  9.3392059103007707e-01  9.3666820187793742e-01  9.4367001003020490e-01  9.5564658942985337e-01  9.6914901837675815e-01  9.8399085586900248e-01  9.9999997543162256e-01  9.9999997543162256e-01  9.9999997543162256e-01  9.9999997543162256e-01  9.9999997543162256e-01  9.9999997543162256e-01  9.9999997543162256e-01  4.5933761262343004e-01  4.7122948071733056e-01  4.7577558339604631e-01  4.9730781512877986e-01  5.0917585729919213e-01  5.5075480752441619e-01  5.5671594199324181e-01  6.1315579822747368e-01  6.1970241181560048e-01  6.8659711855737438e-01  7.1077175674564408e-01  7.8245204648832323e-01  8.2037544155022879e-01  8.7504752210422410e-01  9.0925420020036785e-01  9.3458405106467757e-01  9.4202324696043005e-01  9.2505175839063258e-01  8.9402386079785168e-01  8.5721911154968988e-01  8.2502397596177313e-01  8.0115365562415097e-01  7.9053379371613697e-01  7.8855645273312336e-01  7.9549256566853388e-01  8.0598126471352149e-01  8.1923130604246686e-01  8.3216423720990518e-01  8.4347036474519343e-01  8.5230181130972271e-01  8.5812744104388738e-01  8.5814407132423765e-01  8.5261680527106498e-01  8.4399672295219730e-01  8.3263162969675508e-01  8.1955583054694403e-01  8.0676876178649393e-01  7.9566214719850326e-01  7.8925207803579944e-01  7.9077824021661092e-01  8.0248254665734953e-01  8.2709245537844511e-01  8.6171408054568477e-01  8.9895354198819688e-01  9.3205940353380679e-01  9.4640675800551743e-01  9.4171080680462838e-01  9.1898228446365249e-01  8.7476904851986870e-01  8.4223057744877217e-01  7.8795434519212404e-01  7.2165543866619775e-01  6.5738965951983575e-01  6.5327921552364465e-01  5.7907358012928578e-01  5.7049591698104829e-01  5.4285135250295902e-01  5.1794209668595570e-01  4.9238400769597962e-01  4.9002431563242455e-01  4.6705738725915269e-01  4.6133188159728367e-01  1.0901428332783714e+00  9.3757827496168133e-01  9.1277880142457746e-01  9.1626494395612978e-01  9.8470287665612688e-01  9.9830490598540467e-01  8.7864564873738216e-01  9.1978378519197501e-01  9.5381364201726371e-01  6.9752223524234314e-01  9.2844328121971398e-01  7.2932662079426691e-01  1.1090810556579269e+00  9.3575785298313663e-01  9.2985862961125942e-01  7.8405042544650982e-01  7.3242831932610042e-01  8.5711584467701396e-01  9.1553159818187480e-01  8.6383223304252688e-01  8.4036995523543334e-01  8.8395268098727042e-01  1.0560993419353708e+00  7.8996838219694576e-01  8.5415315236846712e-01  8.9136295360803997e-01  9.6106556580850233e-01  8.1867150327647475e-01  8.7012150830138779e-01  8.8224413131863355e-01  8.6937793970369592e-01  8.8252503624087519e-01  7.8133422163566668e-01  7.3661503687912600e-01  8.0645943963306388e-01  7.3631022716911465e-01  1.1249427233082874e+00  1.1253442010514729e+00  7.6153515809833017e-01  1.0765760677421869e+00  8.3918724554629720e-01  1.0380023250447532e+00  7.4118472989664752e-01  9.4863016341420736e-01  8.9594701426423651e-01  1.0888072863263349e+00  9.7042757062378804e-01  1.1047547346550719e+00  1.1102607254681551e+00  8.3062737280529231e-01  8.4505897778197558e-01  8.6587176267457677e-01  7.4422469698099547e-01  8.1738272381454524e-01  8.8477747031660592e-01  1.1133690693364613e+00  8.6285225360586437e-01  7.8648786125256587e-01  8.7489946067740221e-01  9.1981338695454751e-01  1.0317745786734154e+00  9.4980183559951270e-01  9.6149212749310620e-01  9.3565987082241198e-01  6.9510999026454767e-01  9.1352518750062306e-01  1.0043726246861562e+00  8.0495963896984357e-01  1.1157430512564932e+00  8.6381625404795825e-01  7.6374468702829090e-01  7.3329513901812415e-01  7.7820619020771620e-01  1.0388207324416270e+00  1.0276717996488312e+00  7.9321751178046884e-01  8.7514801709715828e-01  1.0619662456400620e+00  8.6251144106441002e-01  1.1210190533197559e+00  1.0813475835944337e+00  8.3960054434553244e-01  9.7253722142475252e-01  1.0261216948648459e+00  9.4009002418437160e-01  9.4436509799432056e-01  8.3625337804475941e-01  7.8900983017183834e-01  8.2731032260174131e-01  1.0582487488416967e+00  8.6907127984992050e-01  9.3379172949782674e-01  6.6637589787643747e-01  8.5882693244654629e-01  8.7393234699524547e-01  1.1100453304279700e+00  9.4740642388517149e-01  6.6822870099662879e-01  1.0771661419933947e+00  8.9291607080673885e-01  9.0557883820587981e-01  9.5541405173795202e-01  9.1110883409988908e-01  1.0934886320260675e+00  1.0226489127136897e+00  7.9973528301512353e-01  1.1321843196857260e+00  9.3015707028344163e-01  9.6474788167435910e-01  9.6610369723641065e-01  1.1317981063974336e+00  7.7311652478682080e-01  8.4020265280743567e-01  1.0580900791044201e+00  9.3800932600279596e-01  8.1183345392676898e-01  8.4165187552406173e-01  1.0759536182233769e+00  1.1143398635801645e+00  8.9375672172187315e-01  9.5234780774099193e-01  8.2698801271131528e-01  1.1233063050664065e+00  1.1295878319912260e+00  8.5179251741750939e-01  8.8509170312627750e-01  8.5649718686593834e-01  9.3470718697494204e-01  8.9350250556242394e-01  9.8308470932358716e-01  7.8933731104131977e-01  1.0977143481834073e+00  9.3322056558215383e-01  8.6607284214298474e-01  8.8822172243504727e-01  9.1619601756713653e-01  1.1194390208309390e+00  9.1111545442451547e-01  9.3475831921423558e-01  1.1310976764743206e+00  7.4748018471408051e-01  6.6111467359156129e-01  8.8408048360069635e-01  8.8381986918839206e-01  9.8555636250600898e-01  1.0672655638704240e+00  8.1079383092207558e-01  8.8158271412485156e-01  8.9627503881442971e-01  9.0878881536512879e-01  7.7307899888271292e-01  8.9396230120562792e-01  6.7469175345095833e-01  7.7473379380938012e-01  8.5051864952145539e-01  1.0631259915249773e+00  1.0220750172470452e+00  8.9018913350724904e-01  1.0987232389731463e+00  8.1778062850423905e-01  9.8193647958165486e-01  7.8393198534575703e-01  1.0936426025436317e+00  1.0792261275569726e+00  8.4607786811291863e-01  9.0726762607856659e-01  7.1042712113532103e-01  9.2576809749254918e-01  1.0207176145491599e+00  7.9419516763303621e-01  7.5326666179486546e-01  7.0567762714074611e-01  8.0144241782246650e-01  1.1028546460436901e+00  9.3088936073713269e-01  7.5186496104211464e-01  9.7788603563521059e-01  8.3121125250203942e-01  6.0175430898601867e-01  6.3118819659970293e-01  6.8292510539803530e-01  1.0191207675096585e+00  9.2562126055801031e-01  1.0708360655236766e+00  8.3848997946140869e-01  8.8069218959517126e-01  9.5377816790404457e-01  1.0451705909979714e+00  8.0310863067727600e-01  7.1859052540690882e-01  7.7112403768841875e-01  6.0455699503260485e-01  7.8821149400710244e-01  7.8772550630431426e-01  1.0763936336883171e+00  1.0403593300689289e+00  9.3544244366276830e-01  8.9011365875623105e-01  8.3168045579316485e-01  9.3294298127523678e-01  7.7978987464436567e-01  8.8255664712480875e-01  8.9024310730770961e-01  8.3345651821586986e-01  8.5034015760647330e-01  8.3775187683438190e-01  9.0776253039906296e-01  1.0402864838356800e+00  7.9927688190227819e-01  8.2674087204017677e-01  1.1243460597255430e+00  1.1091317808624810e+00  9.6117436689941471e-01  8.1213851273449245e-01  9.0169685936343325e-01  8.4918071403707163e-01  1.0964829024075842e+00  8.8590152448758885e-01  8.6406958035035841e-01  8.1669170307445405e-01  1.1241070171126610e+00  8.2564889500893912e-01  8.9890722531838407e-01  5.9295057183667388e-01  6.2009249581278181e-01  9.4711773933968391e-01  9.4640093032889117e-01  1.1200212090616823e+00  8.8403158792444014e-01  8.5058238577446943e-01  6.2761026731784875e-01  8.8584624116239019e-01  8.5704847023887032e-01  8.3775591035205776e-01  9.5872647144412926e-01  1.1260534332304759e+00  7.0689280331895221e-01  1.0739837745508720e+00  5.7372471231247701e-01  1.1247561398834511e+00  8.2659771613028699e-01  8.5730559128184980e-01  9.1216109877434814e-01  1.0423611282251071e+00  6.7135198313330824e-01  9.3484841149927789e-01  7.8938610664206155e-01  9.8484156301101511e-01  1.1122484752825865e+00  6.4445484620180560e-01  7.9898814750521840e-01  6.7528680172683042e-01  9.8733909574939105e-01  9.3410647953617132e-01  9.2010768848978619e-01  9.8884021972105329e-01  8.9721296347353052e-01  9.1065108820267571e-01  8.0928721294015293e-01  9.2797424678191265e-01  7.7705502701543117e-01  8.5853217672231108e-01  9.2424719986662007e-01  8.1051758961599429e-01  8.0845667749740069e-01  8.0002462675357822e-01  7.5277746826977820e-01  8.0306923354828175e-01  8.4186532548057325e-01  9.9121733759749586e-01  9.0695981067742448e-01  7.2002020643424058e-01  8.6389326110244091e-01  9.3112173005422416e-01  9.2543163055449484e-01  9.2374347338945573e-01  7.2478217825493774e-01  1.0666250090682974e+00  1.0478290701127595e+00  7.8792930541364115e-01  8.6871900640577437e-01  8.6658410192294055e-01  7.5631349852365848e-01  8.3876118606722205e-01  9.3440995192230492e-01  8.1638909160414064e-01  8.7006880050781532e-01  7.3331712393430970e-01  1.1218562075778293e+00  9.2397307387174388e-01  8.5492980468020485e-01  1.0537861152766639e+00  9.3951668242673347e-01  9.2881763642118942e-01  8.2337179082767997e-01  8.0207718187233312e-01  1.0108349609125320e+00  9.3558944789399134e-01  7.0561181722687338e-01  1.0140846662857843e+00  9.6358306971916741e-01  8.6080870378529917e-01  9.7653079794960296e-01  1.1094169300030279e+00  8.4091880059846469e-01  8.6096205391376723e-01  7.9602473762959658e-01  1.0594468880884069e+00  9.0249422222694786e-01  9.1114768073061903e-01  9.2291574621164663e-01  1.0125951356949172e+00  7.4441903440461965e-01  8.1331113126324484e-01  1.1246303885925690e+00  8.5237630752879734e-01  9.3918640751225169e-01  1.0480147583686161e+00  7.9209422530480356e-01  1.0149039524781569e+00  1.1193196207149652e+00  7.2566702361340452e-01  7.8608017543034403e-01  9.5632356023452880e-01  7.7074384102438409e-01  8.4952802308757958e-01  5.7345529670640083e-01  7.8588172600089168e-01  1.1375700846238985e+00  1.0966252511797336e+00  1.0851950960469201e+00  1.1034414343971326e+00  9.5830544847099619e-01  1.0870670398130946e+00  8.1048993195676078e-01  8.9745445190956441e-01  8.7772173784384599e-01  9.2498349374984334e-01  9.3569889651843230e-01  9.8150200319924963e-01  8.6968833183534877e-01  1.0382511653350370e+00  1.1216624892997475e+00  8.7046289796904652e-01  1.1166028966532278e+00  9.5001975388701643e-01  1.0997597179293463e+00  1.1258827899668060e+00  9.7605061425176198e-01  8.6506942853869806e-01  9.6791260748570407e-01  9.8938288066314051e-01  8.5007403273158855e-01  1.1001439831022681e+00  1.0534334536225549e+00  7.6570311606215624e-01  1.1011121275702398e+00  5.5892632536797526e-01  9.1032746747181303e-01  9.6881763436863499e-01  8.6916092270528478e-01  8.8728963170720987e-01  1.0135231077393803e+00  1.0592580377369640e+00  1.1189753892942436e+00  1.1305794433426963e+00  9.4489170560586588e-01  1.0320768997043019e+00  1.1372245475839944e+00  8.5872616131706070e-01  8.1156355040193884e-01  1.1100977579721178e+00  9.3591276777825938e-01  8.8564176044014065e-01  1.0702999570945202e+00  9.0679590605548666e-01  9.2277632112153585e-01  8.0767257955876448e-01  8.5005450908767111e-01  8.9887910772764334e-01  9.3625496869673897e-01  8.7953316974525597e-01  9.3039562923503316e-01  9.4417246305084468e-01  8.3866400724155699e-01  9.2660216237823900e-01  1.0439765474846951e+00  7.7389933247056153e-01  1.0719999965706324e+00  9.1217102823158902e-01  8.9075485485649131e-01  8.9140734810198297e-01  8.7724581116822031e-01  9.3837841139422518e-01  1.0440603238184587e+00  8.0910145064228622e-01  8.7225257847790716e-01  8.6260690652717742e-01  8.3912106752067572e-01  8.5491412746049900e-01  1.0711980052452261e+00  8.7337027341690732e-01  8.1273035031177454e-01  7.2680762271620380e-01  7.9541136264599932e-01  9.4195728061195472e-01  1.0766536687996027e+00  9.3623915664856883e-01  8.5866681986011983e-01  8.2573228048148450e-01  9.0827553336947175e-01  9.2922384720207640e-01  8.3238833064822215e-01  1.0119485882460435e+00  9.8880825903063485e-01  9.7349552475064927e-01  1.0934798716908294e+00  1.1381471243316028e+00  1.0951468898688230e+00  1.0263986592598533e+00  9.8825561074957913e-01  1.0437767431052720e+00  1.1299882319099350e+00  9.3578567043348526e-01  1.1379604715956988e+00  9.3469212199214380e-01  9.5258111788372224e-01  8.5013239284657616e-01  9.0714714884967251e-01  1.0934254710485578e+00  8.6741265595319372e-01  7.2442462631509552e-01  9.3448370170391915e-01  1.0294952606333212e+00  9.3106184420244009e-01  1.1248580043991829e+00  1.0929113912909989e+00  8.8356076511129078e-01  1.1091987652712685e+00  1.1129719387810193e+00  1.0729905984732786e+00  8.9418986558363256e-01  1.0864967689991056e+00  9.4762618775978924e-01  7.7150987296138207e-01  1.0879042682710187e+00  8.5266687275946662e-01  1.0226071593504191e+00  1.0098405265232477e+00  8.1583165905937061e-01  7.2065754554714834e-01  8.3369141694256743e-01  9.1105765779550396e-01  1.0565122510237241e+00  7.5916188477021862e-01  1.1228903689951151e+00  9.0499141660918214e-01  9.6051249010721251e-01  5.7177629737732116e-01  9.4573821232959820e-01  7.6208701558907344e-01  6.9437493013849050e-01  9.6468212305816703e-01  1.0493024520563166e+00  1.0202263860188763e+00  8.7088092776604376e-01  1.0106253403343253e+00  1.0660036204312433e+00  1.1244998550212786e+00  8.6096414179654546e-01  7.5319791676094050e-01  9.0772542734676531e-01  8.8971364283940657e-01  7.0153220626779678e-01  8.7824005986963483e-01  1.0044661978668172e+00  6.8187971077491893e-01  9.9099804606421971e-01  9.4156773158151286e-01  7.5541199500328404e-01  9.0312837939820190e-01  9.7124308196229558e-01  7.4847329890115533e-01  7.1616235023542685e-01  9.8921123109801146e-01  1.0538487781527737e+00  1.1213753806031657e+00  9.3521001008190141e-01  9.0189374085530949e-01  8.5710155827234236e-01  9.7322529265842184e-01  7.4829317212634239e-01  8.6035235485323391e-01  9.6677109489506574e-01  </DataArray> 
</PointData> 
</Piece>
</UnstructuredGrid>
</VTKFile>