<?xml version="1.0"?>
<VTKFile type="UnstructuredGrid"  version="0.1"  >
<UnstructuredGrid>
<Piece  NumberOfPoints="622" NumberOfCells="1116">
<Points>
<DataArray  type="Float64"  NumberOfComponents="3"  format="ascii">-6 -2 0  -6 2 0  6 2 0  6 -2 0  -2.8 0 0  -1.2 0 0  -5.500000000001853 -2 0  -5.000000000003705 -2 0  -4.500000000005556 -2 0  -4.000000000007409 -2 0  -3.50000000000926 -2 0  -3.000000000011112 -2 0  -2.500000000012963 -2 0  -2.000000000014814 -2 0  -1.500000000016665 -2 0  -1.000000000018516 -2 0  -0.5000000000203677 -2 0  -2.204547655537681e-11 -2 0  0.4999999999796305 -2 0  0.9999999999814779 -2 0  1.499999999983327 -2 0  1.999999999985175 -2 0  2.499999999987029 -2 0  2.999999999988882 -2 0  3.499999999990735 -2 0  3.999999999992589 -2 0  4.49999999999444 -2 0  4.999999999996293 -2 0  5.499999999998147 -2 0  6 -1.500000000001387 0  6 -1.000000000002774 0  6 -0.5000000000041616 0  6 -5.505595979116151e-12 0  6 0.4999999999958384 0  6 0.9999999999972258 0  6 1.499999999998613 0  5.500000000001853 2 0  5.000000000003705 2 0  4.500000000005556 2 0  4.000000000007409 2 0  3.50000000000926 2 0  3.000000000011112 2 0  2.500000000012963 2 0  2.000000000014814 2 0  1.500000000016665 2 0  1.000000000018516 2 0  0.5000000000203677 2 0  2.204547655537681e-11 2 0  -0.4999999999796305 2 0  -0.9999999999814779 2 0  -1.499999999983327 2 0  -1.999999999985175 2 0  -2.499999999987029 2 0  -2.999999999988882 2 0  -3.499999999990735 2 0  -3.999999999992589 2 0  -4.49999999999444 2 0  -4.999999999996293 2 0  -5.499999999998147 2 0  -6 1.500000000001387 0  -6 1.000000000002774 0  -6 0.5000000000041616 0  -6 5.505595979116151e-12 0  -6 -0.4999999999958384 0  -6 -0.9999999999972258 0  -6 -1.499999999998613 0  -2.796147781337886 -0.07841371226233997 0  -2.784628224322852 -0.1560722576115546 0  -2.765552268586196 -0.2322277418021561 0  -2.739103626009626 -0.30614674589063 0  -2.705537011479457 -0.3771173894593519 0  -2.665175689843037 -0.4444561864141836 0  -2.618408362691456 -0.5075146273293722 0  -2.565685424950688 -0.5656854249477874 0  -2.507514627332613 -0.6184083626887972 0  -2.444456186417533 -0.6651756898407991 0  -2.377117389462776 -0.7055370114776264 0  -2.306146745894456 -0.7391036260080417 0  -2.232227741806235 -0.7655522685849585 0  -2.15607225761588 -0.784628224321992 0  -2.078413712266957 -0.7961477813374315 0  -2.000000000003407 -0.7999999999999998 0  -1.921586287739523 -0.7961477813380696 0  -1.843927742389945 -0.7846282243231506 0  -1.767772258198879 -0.7655522685865098 0  -1.693853254109962 -0.7391036260098718 0  -1.622882610540873 -0.7055370114795768 0  -1.555543813585629 -0.6651756898429115 0  -1.49248537267008 -0.6184083626910072 0  -1.434314575051535 -0.5656854249500112 0  -1.381591637310384 -0.5075146273316149 0  -1.334824310158267 -0.4444561864161359 0  -1.294462988521423 -0.3771173894609975 0  -1.260896373990956 -0.3061467458920351 0  -1.234447731414138 -0.2322277418032578 0  -1.215371775677287 -0.156072257612254 0  -1.203852218662147 -0.07841371226267954 0  -1.203852218662115 0.07841371226235888 0  -1.215371775677132 0.156072257611478 0  -1.234447731413795 0.232227741802127 0  -1.260896373990353 0.3061467458905811 0  -1.294462988520456 0.3771173894591898 0  -1.334824310156812 0.444456186413959 0  -1.381591637308413 0.5075146273292139 0  -1.434314575049147 0.5656854249476236 0  -1.492485372667197 0.6184083626886415 0  -1.555543813582104 0.6651756898405565 0  -1.62288261053673 0.7055370114773629 0  -1.693853254105125 0.7391036260078683 0  -1.767772258193396 0.7655522685848468 0  -1.84392774238373 0.7846282243219146 0  -1.921586287732977 0.7961477813374253 0  -1.999999999996558 0.8 0  -2.078413712260516 0.7961477813380661 0  -2.156072257610207 0.7846282243231205 0  -2.232227741801178 0.7655522685864928 0  -2.306146745890059 0.7391036260098632 0  -2.377117389459098 0.7055370114795929 0  -2.444456186414405 0.6651756898428894 0  -2.50751462732998 0.6184083626909587 0  -2.565685424948549 0.5656854249499272 0  -2.61840836268981 0.5075146273313792 0  -2.665175689841831 0.4444561864159886 0  -2.705537011478692 0.3771173894607835 0  -2.739103626009108 0.3061467458918818 0  -2.76555226858589 0.2322277418031643 0  -2.784628224322724 0.1560722576122001 0  -2.796147781337853 0.07841371226267957 0  0.6720367661319522 0.1312687487860887 0  -4.389489086394485 0.3544472233398538 0  -3.816221554046232 -0.6097988664512611 0  -3.552726516474419 0.9342959806851625 0  -0.2536610443052337 0.8162373554653355 0  -0.1843238977799138 -0.6649951410982842 0  -3.613359951620445 0.1086570650978273 0  -3.146954163409593 -1.074378179335012 0  -0.4255266515582625 0.07734891565364931 0  -0.9413731612925856 1.168014724254929 0  -2.947764053183577 1.200029094390044 0  -0.8319852757411681 -1.058626838707328 0  2.675418990747819 -1.137325591670363e-12 0  -2.602010642259726 -1.287560129290477 0  -2.334401622060699 1.335006108940604 0  -1.524718496628401 1.32890816230333 0  -1.369813829148039 -1.26145150481762 0  -3.294065651892671 -0.4630240940010318 0  -2.072749204569071 -1.388981302138359 0  -0.7546165313921411 0.5601792161340381 0  -3.224879719581335 0.4382689715877901 0  -0.7073137361349826 -0.4625305410752652 0  4.326242945813966 0.3262429458150917 0  -3.187880061217201 0.07437712177460168 0  -2.94792024259867 0.7030255657465158 0  -2.678809277907896 0.9152683582887104 0  -4.911626141576894 -0.5700186648601188 0  -2.980647654587299 -0.5685006168686053 0  -2.769438919323564 -0.8202775213660614 0  -1.936950121013948 1.220669938589229 0  -0.8971643766260747 0.2762459428874499 0  -0.8760878018253068 -0.06836412137772707 0  -1.086827485441145 0.6772548942594016 0  -1.31355927028917 0.8808768148414213 0  -1.034266382739347 -0.5912381576649568 0  -1.241594139118264 -0.836771920085274 0  1.667161185638911 -0.6367996576268693 0  1.778189842800902 0.7191719841256095 0  -3.065106827511819 -0.266795371500425 0  3.714311277362231 -0.7275465302492842 0  -1.728329421201519 -1.09954751473283 0  4.870629493137888 -0.7325040699186681 0  -3.024707894719303 0.2567561910603656 0  -4.375540207252226 1.228935704312058 0  -2.272077148001781 -1.086192861256262 0  3.351408248797803 0.9175227128129597 0  -5.141847419540732 0.8091901960109126 0  0.5769368286199241 1.111816231125821 0  0.7411482978492124 -1.079569101289617 0  -1.074013749991219 0.430231207546053 0  -1.04664573441257 -0.3358382377487088 0  -2.439195336951085 0.9224778883059374 0  -2.902607676587358 0.4360473765597399 0  -1.629450174302152 1.035617385691805 0  -2.146859933125513 1.032375363966426 0  2.587625196444542 -0.9999926061845814 0  -2.529286802957126 -0.8830616815739111 0  -1.493798157676768 -0.8794705728517196 0  -1.932158132383022 -1.026681566564148 0  -4.09956359341904 -0.1372485582942864 0  5.055802064425553 1.050933510837308 0  -4.413659685984891 -1.207626391697488 0  -4.961411026474009 0.1201902955685026 0  -3.771151641156835 -1.303594976371997 0  -3.001321503506133 -0.04919177107285733 0  -3.881733605683001 0.5124517634812003 0  -0.1971627317996802 -1.336445372382849 0  -2.742825060181767 0.6732573903735507 0  2.520439429199979 1.129372838786189 0  -1.026326428668429 0.1384273198437734 0  -2.779290004861729 -0.5844691722665721 0  -2.895095740820851 -0.4261289730972082 0  -1.275682076193407 0.6630703172777138 0  0.1045291701958869 0.3433373435296472 0  5.175560481258801 0.0608563229178163 0  -1.211574424201636 -0.5847362589868093 0  -1.85847006217035 1.007917631940711 0  4.152535916385823 1.131901130662082 0  -1.04878257200685 -0.1253529988863012 0  1.432836501626023 0.05634449574318775 0  3.560672936003603 0.01188897172456759 0  -3.351823698389408 -0.1821329582635926 0  -5.145153363200735 -1.259166339382508 0  0.03473693330309885 -0.1724947236036572 0  -4.377830921337186 -0.6172564090242229 0  -0.3943750728122595 1.410897156959435 0  -1.661073679471639 -0.9342065000197183 0  -1.49086536677686 0.8331714487926741 0  -2.584486130952032 0.7871482690034864 0  4.270535884593893 -1.259607924744415 0  -1.757417028085795 -1.505182186951191 0  -3.430586920998477 1.425579221231371 0  -2.917598827418652 -0.2298465409534677 0  -2.328978331116049 -0.9300959620317677 0  -2.148543000691344 -0.9751580214451921 0  1.002654111360038 -0.4521702885594788 0  -4.628651824080903 -0.1127998710567241 0  -2.948904386702482 0.1555943115410545 0  0.4165242577134774 -0.5629432649478633 0  -3.698137692471105 -0.3173027948676715 0  -3.491400684461791 -0.7926319721650269 0  -0.3844454817728994 0.4680628696134375 0  -3.207830713508533 0.9778749990559993 0  3.229909751065535 -1.326302454776001 0  5.330007715336748 -1.312905173261894 0  -2.649214054100534 -0.713314536278899 0  1.342022964818772 -1.328315248672686 0  -2.556460939068198 1.202372762828344 0  -0.3497819755044588 -0.3080427614060888 0  -4.928440909495523 1.387622767511967 0  1.309170811945155 1.337467055109531 0  -1.352031940181449 -0.7151198948590243 0  -0.6132855723904642 0.9519045895123004 0  4.266838388406324 -0.3707357390867402 0  -3.834389788310238 1.371594798941152 0  -1.187890214580146 0.4851427123079557 0  -1.109118888029193 0.3185947354467283 0  0.1837819401738013 1.234799661476361 0  1.108165254659559 0.6237223548284967 0  -0.5266600156584522 -0.8113991260886402 0  -4.643822083543982 0.7834094684931707 0  -1.146235204666366 -0.4027330721405781 0  2.049029845992713 -0.2664662499985428 0  2.002665761665898 -1.328912351029848 0  -1.678783505586872 0.8978832065736417 0  -2.049499525232052 0.9483890761590005 0  -2.229972236535132 0.9181006323151361 0  -3.033763529945482 -1.54240494280775 0  -3.562344364746847 0.5622550957224539 0  -5.524396842903405 -0.2709714867672603 0  -0.9710982764034376 -1.549038578476423 0  3.058819320130555 -0.5375106252795963 0  -4.170365230099585 0.7342553699229977 0  -1.045878746461381 -8.187420622554697e-05 0  -1.864822945411764 -0.9219031104673102 0  -0.6251005091687033 -0.2120650512195049 0  2.317562622406059 0.4886417799113238 0  -0.6674371191466613 0.1483993095055008 0  -2.705757882979874 1.609712312948224 0  
[...]
<PointData  Scalars="f_24"> 
<DataArray  type="Float64"  Name="f_24"  format="ascii">9.9999997471637447e-01  9.9999997471637447e-01  9.9999997471637447e-01  9.9999997471637447e-01  4.3911265338278832e-01  8.6009823591216672e-01  9.8363200900093395e-01  9.6797739491872481e-01  9.5284474775128492e-01  9.4039466291733287e-01  9.3108898404210161e-01  9.2535261930418933e-01  9.1575653307609117e-01  8.8218856529938916e-01  8.2476565652989509e-01  8.6390913618920961e-01  9.8478666018295236e-01  1.0892585740964689e+00  1.1411783001108746e+00  1.1570735403422041e+00  1.1530208963168354e+00  1.1392195821756648e+00  1.1224146180195955e+00  1.1041970412858715e+00  1.0875551551214939e+00  1.0689257294406207e+00  1.0525963563914471e+00  1.0339744145106322e+00  1.0178542933758774e+00  9.9999997471637447e-01  9.9999997471637447e-01  9.9999997471637447e-01  9.9999997471637447e-01  9.9999997471637447e-01  9.9999997471637447e-01  9.9999997471637447e-01  1.0176670198987661e+00  1.0341783484978295e+00  1.0525961433237045e+00  1.0685775846152124e+00  1.0872099129031367e+00  1.1051649003341157e+00  1.1213990470380224e+00  1.1390844486192027e+00  1.1527139842770382e+00  1.1565437964297638e+00  1.1408300060295413e+00  1.0903632560440963e+00  9.8995119276926369e-01  8.5592643896246623e-01  8.4888897698717158e-01  8.8394402918448478e-01  9.1775271782315448e-01  9.2602144072560988e-01  9.3134308774111219e-01  9.3993591959340494e-01  9.5317095753498771e-01  9.6769036666813191e-01  9.8335242137126888e-01  9.9999997471637447e-01  9.9999997471637447e-01  9.9999997471637447e-01  9.9999997471637447e-01  9.9999997471637447e-01  9.9999997471637447e-01  9.9999997471637447e-01  4.4225811199008763e-01  4.5242087776278211e-01  4.5179017579760833e-01  4.6996107473262044e-01  4.7308866929798421e-01  5.1579282134686932e-01  5.1405759970332776e-01  5.7607339373686239e-01  5.7426890449589207e-01  6.4552631582888487e-01  6.6656559698024553e-01  7.4122139118935348e-01  7.7925369353358742e-01  8.3242646656634545e-01  8.6140778951770125e-01  8.7795451024749094e-01  8.7379127076071017e-01  8.4592408612478909e-01  8.0708838782331738e-01  7.6741177955235029e-01  7.3964395823224582e-01  7.2488926606503579e-01  7.2691572666463500e-01  7.3811235777549633e-01  7.5757167776176582e-01  7.7908843186782628e-01  8.0115219276679872e-01  8.2116664624633839e-01  8.3735227743128549e-01  8.4964665377408100e-01  8.5764363864309079e-01  8.5778067802005897e-01  8.5033963847139515e-01  8.3853783101573676e-01  8.2213935665585525e-01  8.0246013052807730e-01  7.8078073911115364e-01  7.5888929734377697e-01  7.4003730602866802e-01  7.2836985239905772e-01  7.2764883598931140e-01  7.4338130354705667e-01  7.7393888560147461e-01  8.1453672398138521e-01  8.5602578902140714e-01  8.8265162229664018e-01  8.8883651009959463e-01  8.7469041982578766e-01  8.3466292434097278e-01  8.0309485190608054e-01  7.4703149005383895e-01  6.7734845348260808e-01  6.0892774144663309e-01  6.1311889910626527e-01  5.2969744915654360e-01  5.3289962096703336e-01  5.0306144974813094e-01  4.8184575472973490e-01  4.6172982508689508e-01  4.6704434581266036e-01  4.4677951590833315e-01  4.4425924426825386e-01  1.1151992775374839e+00  9.3742402836770944e-01  9.1309938594186246e-01  9.1501831033860581e-01  1.0112288995412750e+00  1.0195472436909661e+00  8.8157053654840434e-01  9.1611902787088328e-01  9.7245841102912500e-01  7.0818971630796790e-01  9.2164894780308504e-01  7.6301780552883525e-01  1.1138111300147671e+00  9.2036750665601241e-01  9.0775134153059911e-01  7.1023240570124990e-01  6.5959413125848299e-01  8.6022441439937736e-01  8.8080625324483774e-01  8.7851253140516861e-01  8.4393290367005158e-01  8.9800658709701042e-01  1.0579131235798525e+00  7.9502157954293706e-01  8.5311575952155894e-01  8.7592850365505859e-01  9.6041267219159754e-01  8.1867318657873345e-01  8.5861681149688918e-01  8.2118863789749896e-01  8.7429135970885508e-01  8.8926032744853767e-01  7.6480360912638623e-01  6.6569336596334083e-01  7.9719391797183270e-01  6.8217829943811537e-01  1.1420110315654752e+00  1.1401168398523505e+00  7.6490460672306559e-01  1.0790683667618060e+00  7.4836288677501062e-01  1.0391790421159350e+00  7.4378212435212021e-01  9.4657677260028761e-01  8.5149471188234016e-01  1.0916644824503394e+00  9.6967703781788706e-01  1.1198480753944380e+00  1.1284802282180217e+00  8.2310229974461424e-01  8.4146868672841224e-01  8.2715149187246895e-01  7.4226974500516019e-01  7.2307424220737582e-01  8.3557981671896253e-01  1.1178164797461221e+00  8.2978561902043368e-01  6.9439214091641599e-01  8.0333938078199696e-01  9.2054694425491668e-01  1.0327420040694770e+00  9.4777834007508899e-01  9.6108729093085565e-01  9.3218967323905300e-01  6.9739433680444596e-01  9.1402770351088658e-01  1.0337188367667380e+00  7.9205711385060407e-01  1.1201713636828827e+00  8.6555536301547153e-01  7.5241545635843865e-01  7.3024402343019534e-01  7.3743447519106597e-01  1.0603692757542644e+00  1.0285545263205373e+00  7.6504349812091466e-01  7.9903144890408917e-01  1.0638762843814213e+00  8.6361261039079118e-01  1.1426103523037847e+00  1.0841706574865639e+00  8.4396291063454076e-01  9.7144662368571466e-01  1.0487500834422283e+00  9.3950323890145482e-01  9.8530343686709132e-01  7.4128310047522372e-01  7.0345986306146069e-01  7.9790041361093922e-01  1.0599985102979395e+00  8.1609875678890165e-01  9.2876262500035456e-01  6.6422509214019632e-01  8.1341831559646505e-01  8.2165154634063708e-01  1.1335261663881782e+00  9.4718967322343828e-01  6.6785314246304928e-01  1.0970908331368432e+00  8.9490235735555534e-01  9.0549612174358796e-01  9.7674489618010907e-01  9.0913909479323418e-01  1.0962312989630998e+00  1.0233202466548683e+00  7.7510482704299410e-01  1.1504344668669297e+00  9.1313463273831019e-01  9.8467686500854268e-01  9.6468907927082137e-01  1.1510099852115891e+00  7.1585203534421793e-01  8.8835647495701553e-01  1.0599758512457809e+00  9.3443887398201397e-01  7.9344002394066715e-01  8.3623173228270031e-01  1.0901263930180174e+00  1.1368983529694607e+00  9.3090935409049524e-01  9.5141992959527466e-01  8.1530009714393215e-01  1.1333727333032513e+00  1.1372528580030814e+00  7.6058480675174789e-01  8.3035776568028097e-01  8.0933841959443564e-01  9.2652005495321643e-01  8.9495292432659501e-01  9.8282402969638849e-01  7.9727627924244138e-01  1.1013747093321500e+00  9.3251064087772872e-01  8.6821368956434364e-01  8.1181472420390821e-01  9.3094777548068797e-01  1.1258402539700365e+00  9.2439594660352009e-01  9.2409866062872814e-01  1.1393382445281173e+00  7.3893134248204306e-01  6.5505000588321083e-01  8.9278159260127410e-01  8.8445429704427836e-01  9.8515034138089397e-01  1.0811818322924911e+00  7.9104620007769788e-01  8.8267618948707427e-01  8.7027892192933420e-01  9.1009849132988807e-01  7.0969837218263132e-01  9.0698865422847996e-01  6.6067292220771234e-01  7.9290355147330138e-01  8.4750017816232848e-01  1.0791475053214432e+00  1.0227791124068102e+00  8.8850084549900887e-01  1.1016365944274304e+00  8.4049668156786284e-01  9.8168070013266495e-01  7.8882493223931527e-01  1.1125642207516051e+00  1.0816126756916393e+00  8.5027124719861236e-01  9.0242475309548276e-01  6.8838708262846116e-01  9.1723215831871974e-01  1.0213697227694432e+00  7.5310364682183117e-01  7.2293164308336910e-01  6.3721295664561883e-01  8.0410918855626101e-01  1.1068190295243572e+00  9.1604817482883194e-01  7.4668910196340077e-01  9.7725222182448668e-01  7.4060837300155236e-01  5.9685047754841014e-01  6.2282843355712902e-01  6.4100841386282903e-01  1.0197190346665375e+00  9.2463126581518140e-01  1.0731375360919504e+00  7.9113654606031125e-01  8.2384300723976722e-01  9.5329180508660449e-01  1.0465588368651662e+00  7.5880128633532007e-01  6.9307767090077710e-01  7.3376807434162661e-01  6.0113560603523608e-01  7.1678300174296916e-01  7.4433810111977550e-01  1.0786221173477524e+00  1.0415997711868121e+00  9.3369421272030895e-01  8.9181806699816701e-01  8.3381888507957336e-01  9.2767675197928967e-01  6.8197839483015776e-01  8.8961021616173486e-01  8.0832802240658486e-01  7.4492045299065268e-01  8.4745226630406967e-01  8.8979254392058615e-01  8.7662221433397547e-01  1.0415689646095330e+00  7.6904506716762311e-01  8.1410316350182732e-01  1.1458626487356178e+00  1.1124779996967631e+00  9.5921424203485128e-01  7.9090420025786246e-01  8.6390916755087621e-01  8.5327206150595658e-01  1.1179488740751438e+00  8.2934491095119722e-01  8.1638691089228965e-01  7.7358389524938431e-01  1.1320164100568744e+00  8.6216417914978505e-01  8.3767955071729339e-01  5.8410830272804548e-01  6.0555672351834344e-01  9.4395638901916046e-01  9.4311662027881960e-01  1.1419818998092106e+00  7.9924737889036990e-01  8.5522360226510574e-01  6.1424286382252902e-01  8.8818385760164809e-01  8.5619379007755936e-01  8.2960135968932680e-01  9.5737303910023752e-01  1.1479201701255968e+00  6.8033296109361596e-01  1.0976592947783035e+00  5.6782479857809809e-01  1.1377185432962134e+00  7.8886415660565667e-01  8.5671896120829749e-01  9.4070613557017080e-01  1.0437042570728385e+00  6.4967584827280778e-01  9.2715326676226495e-01  7.4690458739019772e-01  9.8461788688512764e-01  1.1168110313262722e+00  6.2615072619992873e-01  7.6735888449333434e-01  6.5275569438093495e-01  9.8678785390364776e-01  9.5751746223081546e-01  8.9454118983859521e-01  1.0175115563693871e+00  8.3173408370988589e-01  8.9447130890394921e-01  7.2821980040737055e-01  9.2832069958069663e-01  7.3419837206235172e-01  8.0920505197775250e-01  9.2438580347484145e-01  7.6557741561794146e-01  7.2557857790115188e-01  7.5605042948487433e-01  6.5927125258720798e-01  8.0769935641909729e-01  7.5887814791090868e-01  1.0125092501307953e+00  8.3593001119604504e-01  6.3824516044344271e-01  7.7410595278025296e-01  9.1934270963638065e-01  8.9653835542910687e-01  9.2242542468042077e-01  7.2817186211957963e-01  1.0688109855678209e+00  1.0493298147211423e+00  7.9074960714502007e-01  7.9906855296337087e-01  8.6984890811592175e-01  7.1875649288445065e-01  8.4338897394731938e-01  9.2277841587234111e-01  8.1976430433736347e-01  8.6418018373492911e-01  7.3357895566910614e-01  1.1264190908872893e+00  9.2426564283860735e-01  8.5449662495500700e-01  1.0554916486074195e+00  9.3481624369729399e-01  9.2382369400647424e-01  8.2762166287188943e-01  8.0073307832587448e-01  1.0327057038592966e+00  9.3552848648421849e-01  7.0764596116051326e-01  1.0145404283759298e+00  9.6314116179055465e-01  8.6124454244577175e-01  9.7544171864823370e-01  1.1345979036155407e+00  8.3737736110390115e-01  8.6150424605787557e-01  7.7173077901985176e-01  1.0611997411476737e+00  8.5389312567106801e-01  8.8703350844056106e-01  9.2030576445384571e-01  1.0129912733828133e+00  7.0568802842662393e-01  7.9743201343826020e-01  1.1323941577918060e+00  8.5438909870463009e-01  9.3418651093323712e-01  1.0729769689964486e+00  7.2265695753866521e-01  1.0153782515462351e+00  1.1411762473191875e+00  6.9282969184203780e-01  7.3002924782294243e-01  9.5413204005800478e-01  7.4560367128548311e-01  8.1067682563922827e-01  5.6351660144330340e-01  7.2869427903039374e-01  1.1479362055266895e+00  1.1002608587711757e+00  1.0880751280940522e+00  1.1071017999887793e+00  9.5703883709840021e-01  1.0900649638090818e+00  8.6741034842000242e-01  8.9936861030259052e-01  9.3286129435121778e-01  9.2174649309216405e-01  9.7961151965138304e-01  9.8060568715637264e-01  8.7259065315116291e-01  1.0593966128023549e+00  1.1426834676950870e+00  8.7378472505764371e-01  1.1379804347489237e+00  9.4957221724987417e-01  1.1207820792774466e+00  1.1307406042273034e+00  9.7578466279905152e-01  8.6770515457251918e-01  9.6742212519369131e-01  1.0104161996146230e+00  8.3326833791733623e-01  1.1035165010918770e+00  1.0771446879132816e+00  7.6067907872350049e-01  1.1218489873925219e+00  5.4995619794937078e-01  9.2305208777747472e-01  1.0034650903613067e+00  7.8170662377482225e-01  9.1561681673673390e-01  1.0139288734296812e+00  1.0609900517566633e+00  1.1259826030669033e+00  1.1454934094323705e+00  9.4472112801229879e-01  1.0330501547621032e+00  1.1487722014941584e+00  7.9722655885066362e-01  7.1731030741233814e-01  1.1134780766107804e+00  9.2914653988625839e-01  8.8721559775779812e-01  1.0724394574590894e+00  8.8350194212828181e-01  9.1111887693818050e-01  7.9420450184514912e-01  8.4993401991392825e-01  8.9934895427345507e-01  9.5412829037562708e-01  8.1716440752533215e-01  9.2968124771859295e-01  9.4289227179942370e-01  7.9613333188857371e-01  9.4475102129059640e-01  1.0453859960773582e+00  7.3277726156130540e-01  1.0743941923554370e+00  9.1223102449540772e-01  8.8985912413420876e-01  8.4078458030137115e-01  8.7930618719853715e-01  9.3628352280134086e-01  1.0454270818627858e+00  7.9709594105071235e-01  8.4397534848280009e-01  7.7572538174890182e-01  8.3181795676359027e-01  8.1080521840978481e-01  1.0944319970862417e+00  8.7773071240122980e-01  7.9195498332825476e-01  7.2645802491214007e-01  7.1760556321385915e-01  9.4138585775976324e-01  1.0790684077545623e+00  9.2234934395090529e-01  7.7182527340071172e-01  8.1181736487966538e-01  9.2833292807372547e-01  9.2652153531889114e-01  8.2683288216432138e-01  1.0123253074867726e+00  9.8841507287479768e-01  9.7251485503866208e-01  1.0960688096790561e+00  1.1550282636072433e+00  1.1107697896012168e+00  1.0271958045679175e+00  9.8800137457333159e-01  1.0691032357460277e+00  1.1450590459070495e+00  9.2915371552195047e-01  1.1543413621035645e+00  9.2507379075461271e-01  9.5168476165375826e-01  8.7505966947511493e-01  8.3290277531203305e-01  1.0960767141610490e+00  8.1892003492315957e-01  6.9391032763889104e-01  9.3462791647865240e-01  1.0303948094580870e+00  9.2445199551817980e-01  1.1463905425203638e+00  1.1178266115905688e+00  9.0674349864873593e-01  1.1337911981142872e+00  1.1178900746173863e+00  1.0754463166477182e+00  8.7027388491161450e-01  1.0892445142292209e+00  9.6553779410129081e-01  6.7963264010408708e-01  1.1033770638465394e+00  8.2748677710407226e-01  1.0452547567092301e+00  1.0101514151846220e+00  8.1032489821715592e-01  7.3404534724235027e-01  8.4263760055318793e-01  9.1212341867304114e-01  1.0583073186559286e+00  7.0570267691312571e-01  1.1436283670502483e+00  8.9891233333961240e-01  9.5981991899269381e-01  5.5632431447221220e-01  9.4442361588082047e-01  6.8808513697289986e-01  6.3506483808261416e-01  9.6294856066078005e-01  1.0670578014498526e+00  1.0424137151639539e+00  8.7446459527375997e-01  1.0109364484375163e+00  1.0681065203512219e+00  1.1409942670335638e+00  8.6100907789666969e-01  7.0577735127879726e-01  9.0651569989155678e-01  8.9942152467901948e-01  6.6554278664073296e-01  8.1915784334805386e-01  1.0257037229010939e+00  6.8025134172323753e-01  9.9058250159943595e-01  9.3890424986133647e-01  7.5937049436368276e-01  9.0456798892363932e-01  9.6982866040131954e-01  7.5272813309203701e-01  7.0693684228180198e-01  9.8891414109065268e-01  1.0556149608461964e+00  1.1264747896191682e+00  9.2481544156593232e-01  9.1554270276251870e-01  8.5946608938568314e-01  9.7272712021921881e-01  7.8523395090577863e-01  8.1895002698826025e-01  9.6590852394451643e-01  </DataArray> 
</PointData> 
</Piece>
</UnstructuredGrid>
</VTKFile>