<?xml version="1.0"?>
<VTKFile type="UnstructuredGrid"  version="0.1"  >
<UnstructuredGrid>
<Piece  NumberOfPoints="622" NumberOfCells="1116">
<Points>
<DataArray  type="Float64"  NumberOfComponents="3"  format="ascii">-6 -2 0  -6 2 0  6 2 0  6 -2 0  -2.8 0 0  -1.2 0 0  -5.500000000001853 -2 0  -5.000000000003705 -2 0  -4.500000000005556 -2 0  -4.000000000007409 -2 0  -3.50000000000926 -2 0  -3.000000000011112 -2 0  -2.500000000012963 -2 0  -2.000000000014814 -2 0  -1.500000000016665 -2 0  -1.000000000018516 -2 0  -0.5000000000203677 -2 0  -2.204547655537681e-11 -2 0  0.4999999999796305 -2 0  0.9999999999814779 -2 0  1.499999999983327 -2 0  1.999999999985175 -2 0  2.499999999987029 -2 0  2.999999999988882 -2 0  3.499999999990735 -2 0  3.999999999992589 -2 0  4.49999999999444 -2 0  4.999999999996293 -2 0  5.499999999998147 -2 0  6 -1.500000000001387 0  6 -1.000000000002774 0  6 -0.5000000000041616 0  6 -5.505595979116151e-12 0  6 0.4999999999958384 0  6 0.9999999999972258 0  6 1.499999999998613 0  5.500000000001853 2 0  5.000000000003705 2 0  4.500000000005556 2 0  4.000000000007409 2 0  3.50000000000926 2 0  3.000000000011112 2 0  2.500000000012963 2 0  2.000000000014814 2 0  1.500000000016665 2 0  1.000000000018516 2 0  0.5000000000203677 2 0  2.204547655537681e-11 2 0  -0.4999999999796305 2 0  -0.9999999999814779 2 0  -1.499999999983327 2 0  -1.999999999985175 2 0  -2.499999999987029 2 0  -2.999999999988882 2 0  -3.499999999990735 2 0  -3.999999999992589 2 0  -4.49999999999444 2 0  -4.999999999996293 2 0  -5.499999999998147 2 0  -6 1.500000000001387 0  -6 1.000000000002774 0  -6 0.5000000000041616 0  -6 5.505595979116151e-12 0  -6 -0.4999999999958384 0  -6 -0.9999999999972258 0  -6 -1.499999999998613 0  -2.796147781337886 -0.07841371226233997 0  -2.784628224322852 -0.1560722576115546 0  -2.765552268586196 -0.2322277418021561 0  -2.739103626009626 -0.30614674589063 0  -2.705537011479457 -0.3771173894593519 0  -2.665175689843037 -0.4444561864141836 0  -2.618408362691456 -0.5075146273293722 0  -2.565685424950688 -0.5656854249477874 0  -2.507514627332613 -0.6184083626887972 0  -2.444456186417533 -0.6651756898407991 0  -2.377117389462776 -0.7055370114776264 0  -2.306146745894456 -0.7391036260080417 0  -2.232227741806235 -0.7655522685849585 0  -2.15607225761588 -0.784628224321992 0  -2.078413712266957 -0.7961477813374315 0  -2.000000000003407 -0.7999999999999998 0  -1.921586287739523 -0.7961477813380696 0  -1.843927742389945 -0.7846282243231506 0  -1.767772258198879 -0.7655522685865098 0  -1.693853254109962 -0.7391036260098718 0  -1.622882610540873 -0.7055370114795768 0  -1.555543813585629 -0.6651756898429115 0  -1.49248537267008 -0.6184083626910072 0  -1.434314575051535 -0.5656854249500112 0  -1.381591637310384 -0.5075146273316149 0  -1.334824310158267 -0.4444561864161359 0  -1.294462988521423 -0.3771173894609975 0  -1.260896373990956 -0.3061467458920351 0  -1.234447731414138 -0.2322277418032578 0  -1.215371775677287 -0.156072257612254 0  -1.203852218662147 -0.07841371226267954 0  -1.203852218662115 0.07841371226235888 0  -1.215371775677132 0.156072257611478 0  -1.234447731413795 0.232227741802127 0  -1.260896373990353 0.3061467458905811 0  -1.294462988520456 0.3771173894591898 0  -1.334824310156812 0.444456186413959 0  -1.381591637308413 0.5075146273292139 0  -1.434314575049147 0.5656854249476236 0  -1.492485372667197 0.6184083626886415 0  -1.555543813582104 0.6651756898405565 0  -1.62288261053673 0.7055370114773629 0  -1.693853254105125 0.7391036260078683 0  -1.767772258193396 0.7655522685848468 0  -1.84392774238373 0.7846282243219146 0  -1.921586287732977 0.7961477813374253 0  -1.999999999996558 0.8 0  -2.078413712260516 0.7961477813380661 0  -2.156072257610207 0.7846282243231205 0  -2.232227741801178 0.7655522685864928 0  -2.306146745890059 0.7391036260098632 0  -2.377117389459098 0.7055370114795929 0  -2.444456186414405 0.6651756898428894 0  -2.50751462732998 0.6184083626909587 0  -2.565685424948549 0.5656854249499272 0  -2.61840836268981 0.5075146273313792 0  -2.665175689841831 0.4444561864159886 0  -2.705537011478692 0.3771173894607835 0  -2.739103626009108 0.3061467458918818 0  -2.76555226858589 0.2322277418031643 0  -2.784628224322724 0.1560722576122001 0  -2.796147781337853 0.07841371226267957 0  0.6720367661319522 0.1312687487860887 0  -4.389489086394485 0.3544472233398538 0  -3.816221554046232 -0.6097988664512611 0  -3.552726516474419 0.9342959806851625 0  -0.2536610443052337 0.8162373554653355 0  -0.1843238977799138 -0.6649951410982842 0  -3.613359951620445 0.1086570650978273 0  -3.146954163409593 -1.074378179335012 0  -0.4255266515582625 0.07734891565364931 0  -0.9413731612925856 1.168014724254929 0  -2.947764053183577 1.200029094390044 0  -0.8319852757411681 -1.058626838707328 0  2.675418990747819 -1.137325591670363e-12 0  -2.602010642259726 -1.287560129290477 0  -2.334401622060699 1.335006108940604 0  -1.524718496628401 1.32890816230333 0  -1.369813829148039 -1.26145150481762 0  -3.294065651892671 -0.4630240940010318 0  -2.072749204569071 -1.388981302138359 0  -0.7546165313921411 0.5601792161340381 0  -3.224879719581335 0.4382689715877901 0  -0.7073137361349826 -0.4625305410752652 0  4.326242945813966 0.3262429458150917 0  -3.187880061217201 0.07437712177460168 0  -2.94792024259867 0.7030255657465158 0  -2.678809277907896 0.9152683582887104 0  -4.911626141576894 -0.5700186648601188 0  -2.980647654587299 -0.5685006168686053 0  -2.769438919323564 -0.8202775213660614 0  -1.936950121013948 1.220669938589229 0  -0.8971643766260747 0.2762459428874499 0  -0.8760878018253068 -0.06836412137772707 0  -1.086827485441145 0.6772548942594016 0  -1.31355927028917 0.8808768148414213 0  -1.034266382739347 -0.5912381576649568 0  -1.241594139118264 -0.836771920085274 0  1.667161185638911 -0.6367996576268693 0  1.778189842800902 0.7191719841256095 0  -3.065106827511819 -0.266795371500425 0  3.714311277362231 -0.7275465302492842 0  -1.728329421201519 -1.09954751473283 0  4.870629493137888 -0.7325040699186681 0  -3.024707894719303 0.2567561910603656 0  -4.375540207252226 1.228935704312058 0  -2.272077148001781 -1.086192861256262 0  3.351408248797803 0.9175227128129597 0  -5.141847419540732 0.8091901960109126 0  0.5769368286199241 1.111816231125821 0  0.7411482978492124 -1.079569101289617 0  -1.074013749991219 0.430231207546053 0  -1.04664573441257 -0.3358382377487088 0  -2.439195336951085 0.9224778883059374 0  -2.902607676587358 0.4360473765597399 0  -1.629450174302152 1.035617385691805 0  -2.146859933125513 1.032375363966426 0  2.587625196444542 -0.9999926061845814 0  -2.529286802957126 -0.8830616815739111 0  -1.493798157676768 -0.8794705728517196 0  -1.932158132383022 -1.026681566564148 0  -4.09956359341904 -0.1372485582942864 0  5.055802064425553 1.050933510837308 0  -4.413659685984891 -1.207626391697488 0  -4.961411026474009 0.1201902955685026 0  -3.771151641156835 -1.303594976371997 0  -3.001321503506133 -0.04919177107285733 0  -3.881733605683001 0.5124517634812003 0  -0.1971627317996802 -1.336445372382849 0  -2.742825060181767 0.6732573903735507 0  2.520439429199979 1.129372838786189 0  -1.026326428668429 0.1384273198437734 0  -2.779290004861729 -0.5844691722665721 0  -2.895095740820851 -0.4261289730972082 0  -1.275682076193407 0.6630703172777138 0  0.1045291701958869 0.3433373435296472 0  5.175560481258801 0.0608563229178163 0  -1.211574424201636 -0.5847362589868093 0  -1.85847006217035 1.007917631940711 0  4.152535916385823 1.131901130662082 0  -1.04878257200685 -0.1253529988863012 0  1.432836501626023 0.05634449574318775 0  3.560672936003603 0.01188897172456759 0  -3.351823698389408 -0.1821329582635926 0  -5.145153363200735 -1.259166339382508 0  0.03473693330309885 -0.1724947236036572 0  -4.377830921337186 -0.6172564090242229 0  -0.3943750728122595 1.410897156959435 0  -1.661073679471639 -0.9342065000197183 0  -1.49086536677686 0.8331714487926741 0  -2.584486130952032 0.7871482690034864 0  4.270535884593893 -1.259607924744415 0  -1.757417028085795 -1.505182186951191 0  -3.430586920998477 1.425579221231371 0  -2.917598827418652 -0.2298465409534677 0  -2.328978331116049 -0.9300959620317677 0  -2.148543000691344 -0.9751580214451921 0  1.002654111360038 -0.4521702885594788 0  -4.628651824080903 -0.1127998710567241 0  -2.948904386702482 0.1555943115410545 0  0.4165242577134774 -0.5629432649478633 0  -3.698137692471105 -0.3173027948676715 0  -3.491400684461791 -0.7926319721650269 0  -0.3844454817728994 0.4680628696134375 0  -3.207830713508533 0.9778749990559993 0  3.229909751065535 -1.326302454776001 0  5.330007715336748 -1.312905173261894 0  -2.649214054100534 -0.713314536278899 0  1.342022964818772 -1.328315248672686 0  -2.556460939068198 1.202372762828344 0  -0.3497819755044588 -0.3080427614060888 0  -4.928440909495523 1.387622767511967 0  1.309170811945155 1.337467055109531 0  -1.352031940181449 -0.7151198948590243 0  -0.6132855723904642 0.9519045895123004 0  4.266838388406324 -0.3707357390867402 0  -3.834389788310238 1.371594798941152 0  -1.187890214580146 0.4851427123079557 0  -1.109118888029193 0.3185947354467283 0  0.1837819401738013 1.234799661476361 0  1.108165254659559 0.6237223548284967 0  -0.5266600156584522 -0.8113991260886402 0  -4.643822083543982 0.7834094684931707 0  -1.146235204666366 -0.4027330721405781 0  2.049029845992713 -0.2664662499985428 0  2.002665761665898 -1.328912351029848 0  -1.678783505586872 0.8978832065736417 0  -2.049499525232052 0.9483890761590005 0  -2.229972236535132 0.9181006323151361 0  -3.033763529945482 -1.54240494280775 0  -3.562344364746847 0.5622550957224539 0  -5.524396842903405 -0.2709714867672603 0  -0.9710982764034376 -1.549038578476423 0  3.058819320130555 -0.5375106252795963 0  -4.170365230099585 0.7342553699229977 0  -1.045878746461381 -8.187420622554697e-05 0  -1.864822945411764 -0.9219031104673102 0  -0.6251005091687033 -0.2120650512195049 0  2.317562622406059 0.4886417799113238 0  -0.6674371191466613 0.1483993095055008 0  -2.705757882979874 1.609712312948224 0  
[...]
<PointData  Scalars="f_24"> 
<DataArray  type="Float64"  Name="f_24"  format="ascii">9.9999997584104372e-01  9.9999997584104372e-01  9.9999997584104372e-01  9.9999997584104372e-01  4.7493621182898021e-01  8.5830393829859242e-01  9.8525719854217086e-01  9.7128636376627930e-01  9.5805569816311564e-01  9.4778178855219641e-01  9.4085147243640410e-01  9.3867204643610191e-01  9.3602507759752174e-01  9.1725382449780379e-01  8.6868150310469183e-01  8.4587283830617832e-01  9.2076920760315961e-01  1.0314334253408106e+00  1.0992113067511864e+00  1.1216164505298358e+00  1.1261500951578300e+00  1.1225170967123426e+00  1.1117765881050241e+00  1.0969336356479533e+00  1.0816335353638864e+00  1.0641198944756045e+00  1.0490210719444966e+00  1.0314443409751295e+00  1.0166739935261093e+00  9.9999997584104372e-01  9.9999997584104372e-01  9.9999997584104372e-01  9.9999997584104372e-01  9.9999997584104372e-01  9.9999997584104372e-01  9.9999997584104372e-01  1.0165164326682243e+00  1.0316717300726395e+00  1.0489702111588142e+00  1.0637614889856923e+00  1.0812314659997404e+00  1.0976817891270338e+00  1.1108320072873932e+00  1.1223644008901936e+00  1.1255695158877341e+00  1.1210614315447853e+00  1.0993300655728224e+00  1.0355061438146818e+00  9.2374913085631516e-01  8.4729326244110381e-01  8.7560212521139102e-01  9.1636648915321917e-01  9.3619090370924762e-01  9.3811980271742179e-01  9.4058135564578160e-01  9.4695822811285846e-01  9.5811628093926704e-01  9.7077832610432835e-01  9.8477694229821378e-01  9.9999997584104372e-01  9.9999997584104372e-01  9.9999997584104372e-01  9.9999997584104372e-01  9.9999997584104372e-01  9.9999997584104372e-01  9.9999997584104372e-01  4.7921067116843374e-01  4.9236048359246565e-01  5.0077783505479545e-01  5.2523552915986615e-01  5.4416792734730757e-01  5.8638819652774110e-01  5.9850311524014033e-01  6.4817142631137747e-01  6.5939171075842873e-01  7.1841989228583025e-01  7.4349304727098342e-01  8.0802558441985917e-01  8.4228575972373398e-01  8.9260909375728348e-01  9.2618373872766346e-01  9.5459766932910062e-01  9.6955528309729810e-01  9.6220571003202926e-01  9.4054053437544327e-01  9.1060174678658556e-01  8.7992707079106169e-01  8.5342969336924501e-01  8.3626108490009532e-01  8.2623964382634618e-01  8.2441871890099350e-01  8.2673883440310292e-01  8.3297699603979447e-01  8.4010980936201962e-01  8.4725879976536123e-01  8.5310747823569799e-01  8.5705343375800536e-01  8.5702532126212017e-01  8.5321023302907095e-01  8.4739205603395540e-01  8.4030530409945892e-01  8.3271667922928239e-01  8.2688665273023143e-01  8.2379883087854011e-01  8.2591801719564994e-01  8.3547298492052102e-01  8.5336878819798256e-01  8.8033661493015591e-01  9.1302067176675461e-01  9.4313924472123289e-01  9.6650628466007005e-01  9.7060321609753131e-01  9.5906129913938432e-01  9.3330855980265304e-01  8.9070233484289574e-01  8.6125910075448386e-01  8.1270825973080330e-01  7.5286219604059901e-01  6.9507532726663301e-01  6.8603776158616758e-01  6.2285902891336431e-01  6.0733649321368355e-01  5.8076183357473965e-01  5.5156243752606915e-01  5.2138860059744363e-01  5.1349616009906063e-01  4.8876442353505534e-01  4.8098262486629706e-01  1.0712477320825933e+00  9.3911695830846276e-01  9.1457685308252779e-01  9.1872098026090998e-01  9.4518696717611761e-01  9.7037752463833238e-01  8.7945483707517913e-01  9.2316510524978745e-01  9.3474435384711274e-01  7.0983578740036546e-01  9.3241794841171211e-01  7.1727115758634563e-01  1.1016958936374106e+00  9.4264776153239538e-01  9.3882935251774513e-01  8.3654761009302336e-01  7.8998653585312517e-01  8.5814586031288520e-01  9.2969950043096128e-01  8.4974871636273108e-01  8.4139527813413273e-01  8.6943420709923269e-01  1.0535421036099164e+00  7.9096139478039984e-01  8.5692567088405291e-01  8.9918906104092400e-01  9.6241909729530395e-01  8.2178052769850896e-01  8.7671757408533924e-01  9.1060817980332098e-01  8.6371400320735592e-01  8.7489077427383644e-01  7.9813418762649302e-01  7.9326978664756220e-01  8.1526790006338012e-01  7.8316409339202631e-01  1.1075640710485466e+00  1.1085995863518352e+00  7.6404773796701919e-01  1.0729836805271984e+00  8.9047690675036817e-01  1.0363433762849696e+00  7.4452802058804790e-01  9.5107644158342419e-01  9.1677949359734134e-01  1.0846851437007530e+00  9.7163776195717211e-01  1.0938289751897856e+00  1.0986815034067241e+00  8.3639696640182393e-01  8.4688378141952769e-01  8.8619119089773335e-01  7.5026575224077074e-01  8.7505852213966584e-01  9.0642847926136061e-01  1.1059673500132157e+00  8.8070291335944095e-01  8.4958118028417029e-01  9.0843377648252721e-01  9.2119066815976847e-01  1.0304068023229018e+00  9.5230059555639412e-01  9.6265622504974124e-01  9.3921281145725244e-01  6.9931182305077910e-01  9.1513190262430943e-01  9.5639314632136319e-01  8.1410839522555556e-01  1.1081032601507177e+00  8.6086377611066989e-01  7.7395472125151055e-01  7.4023401780298648e-01  8.1099119620917737e-01  1.0178030895591044e+00  1.0264288573316040e+00  8.1612342935676252e-01  9.1187060403194697e-01  1.0592912768987286e+00  8.6002876000038675e-01  1.1020985952100899e+00  1.0773763853533427e+00  8.4020937013015495e-01  9.7391622848280512e-01  1.0049497885970013e+00  9.4189292214932530e-01  8.9135842082198447e-01  8.9267128398048445e-01  8.4758183166785872e-01  8.4394999904645362e-01  1.0557677624328510e+00  8.9695072393355291e-01  9.3774359280120656e-01  6.7398199679093185e-01  8.8249192500511175e-01  8.9728857553480090e-01  1.0928228623540945e+00  9.4876284863503579e-01  6.7453098836272241e-01  1.0598596560861491e+00  8.9405596323933467e-01  9.0768342077981568e-01  9.3147558087097948e-01  9.1373724638465892e-01  1.0893696466595810e+00  1.0216804804242385e+00  8.1515381522132446e-01  1.1157062654950258e+00  9.3761093971434495e-01  9.4361993970101188e-01  9.6778513871837757e-01  1.1153362733146102e+00  8.1708758624916167e-01  7.9620467879326451e-01  1.0554507042970649e+00  9.4140693163582800e-01  8.2656012846794036e-01  8.4517349481581816e-01  1.0557507029689732e+00  1.0983240815587449e+00  8.5139580212165022e-01  9.5404889631778922e-01  8.3577555288187555e-01  1.1086756640404578e+00  1.1171654400763760e+00  9.0370958020162195e-01  9.0641613300384516e-01  8.7884382526222549e-01  9.3959429961773799e-01  8.9487754398698560e-01  9.8358276993276017e-01  7.9157741659329417e-01  1.0922935753681136e+00  9.3516079928454465e-01  8.6268369521516708e-01  9.2337724400127941e-01  9.0073698345617226e-01  1.1080790549479154e+00  8.9726048897745914e-01  9.3939688500957974e-01  1.1180261548287296e+00  7.5703386836107101e-01  6.7139910355829424e-01  8.7461049875703945e-01  8.8566780538492906e-01  9.8616948530867088e-01  1.0436088382590916e+00  8.3243424175871561e-01  8.8316956933629620e-01  9.0916951400928647e-01  9.1002109504017281e-01  8.2071489023776267e-01  8.8045841477903253e-01  6.9001126009317504e-01  7.6755128121092264e-01  8.5166701396097599e-01  1.0444767785487457e+00  1.0210813860167682e+00  8.9278280488345763e-01  1.0943304175953763e+00  7.9974166010231496e-01  9.8246970886179263e-01  7.8512314598918209e-01  1.0755104364454573e+00  1.0758293421668406e+00  8.4666971181431083e-01  9.1068105950551004e-01  7.4110654941558174e-01  9.3060163198627988e-01  1.0197989367824067e+00  8.1904611363772295e-01  7.7358639161041787e-01  7.6431628222061798e-01  8.0359520290763198e-01  1.0970904726464410e+00  9.3718037714229541e-01  7.6452605235317472e-01  9.7885856615945788e-01  8.8750309977183428e-01  6.1197242545808894e-01  6.4363293969422686e-01  7.2895179442118008e-01  1.0182882321850280e+00  9.2785634009849827e-01  1.0675941923116834e+00  8.6150835756849442e-01  9.0294042255906914e-01  9.5515398625307268e-01  1.0432363719695230e+00  8.2987560491822832e-01  7.3844817177542021e-01  7.9541417312439777e-01  6.1364127755546449e-01  8.3909544062158159e-01  8.2102368544453297e-01  1.0732113961038416e+00  1.0386259666973652e+00  9.3805595473992220e-01  8.9146887579319256e-01  8.3354956605329777e-01  9.3721755716868715e-01  8.4483942603715989e-01  8.7470861972748892e-01  9.3045772799820714e-01  8.8790527616789183e-01  8.5150909200232960e-01  7.9157623276039457e-01  9.2252160915362080e-01  1.0384797101904693e+00  8.2286388976505953e-01  8.3632485688892111e-01  1.1095090505940386e+00  1.1038058515510867e+00  9.6340262889973305e-01  8.2858915607947148e-01  9.1870996040066988e-01  8.4515272428342603e-01  1.0808160096039150e+00  9.1245506590753955e-01  8.8321850251674705e-01  8.3971452650518374e-01  1.1107412000499777e+00  8.0102545355693511e-01  9.2199975663532063e-01  6.0582615986646227e-01  6.3678280708991541e-01  9.5012803772424392e-01  9.4966162648934394e-01  1.1047166312688490e+00  9.2723386255490259e-01  8.4559264638447729e-01  6.4388092431399235e-01  8.8686231646477964e-01  8.5629041428815289e-01  8.4333143343330974e-01  9.6063051221986540e-01  1.1111957642991783e+00  7.2772083860358938e-01  1.0550660677478625e+00  5.8483839486835298e-01  1.1083003091553572e+00  8.5445796935408225e-01  8.5640374213615722e-01  8.7972755009585946e-01  1.0404577078610733e+00  6.9158369112274165e-01  9.3923143540741039e-01  8.2185159175127853e-01  9.8528083026956093e-01  1.1043564886876593e+00  6.6325390985742538e-01  8.2352471147750339e-01  6.9553953601756024e-01  9.8808267018750773e-01  9.0780020599846811e-01  9.2958709860326449e-01  9.4463817268931027e-01  9.2363923963677808e-01  9.1882560262207735e-01  8.6296155143378350e-01  9.2941621404209418e-01  8.0471296964462435e-01  8.7906083790093781e-01  9.2591844749221996e-01  8.3563074868527853e-01  8.6381539490618842e-01  8.2583294080599268e-01  8.1889876183062871e-01  8.0412979261300066e-01  8.8783390058661438e-01  9.6926586063095399e-01  9.3716582877605026e-01  7.8459013662371357e-01  9.1485565982749273e-01  9.3587605332539181e-01  9.3759053625042321e-01  9.2630402749751095e-01  7.2783923253309735e-01  1.0635199153102928e+00  1.0457175794473892e+00  7.9028887407304327e-01  9.0476232133141987e-01  8.6740239482209847e-01  7.8106897510989581e-01  8.3920995743644744e-01  9.3985942188067473e-01  8.1553635580086103e-01  8.7436931674089424e-01  7.3829077627712292e-01  1.1138736517212660e+00  9.2551351612073784e-01  8.5405141892262615e-01  1.0513744365419078e+00  9.4330833438412531e-01  9.3253820317137626e-01  8.2431115264331356e-01  8.0624614230824954e-01  9.8517631560365027e-01  9.3715284770870544e-01  7.0984529964564491e-01  1.0134536340236175e+00  9.6476136547609315e-01  8.5893100893725460e-01  9.7777565016216550e-01  1.0901918377536695e+00  8.4503051564174070e-01  8.5902205048767288e-01  8.1617496699861891e-01  1.0569757756469704e+00  9.2372328384530600e-01  9.2197941836582920e-01  9.2610280061900707e-01  1.0120357785731198e+00  7.8055443479051534e-01  8.2605196004134152e-01  1.1113450870491954e+00  8.5397746304001443e-01  9.4333629711174916e-01  1.0163741321666895e+00  8.4092559195262540e-01  1.0142374337712252e+00  1.1009225870490271e+00  7.4972127721808235e-01  8.2741294418932354e-01  9.5867591396017382e-01  7.9423422282169365e-01  8.7191976610031297e-01  5.8760615348855072e-01  8.2817814606837092e-01  1.1229625208814611e+00  1.0914387362364861e+00  1.0811166862549704e+00  1.0977655560531363e+00  9.6004784225376294e-01  1.0827403662173627e+00  7.6386321553350933e-01  8.9855046346846368e-01  8.1782426610395986e-01  9.2819231948898162e-01  8.7713582194973960e-01  9.8255859879843233e-01  8.7063240122516827e-01  1.0163060489292042e+00  1.1035216626924940e+00  8.7117973578932884e-01  1.1034393573195629e+00  9.5148141229438554e-01  1.0817955325511670e+00  1.1170610661178497e+00  9.7676021134318769e-01  8.6125669380924730e-01  9.6899079624866791e-01  9.6858581934202581e-01  8.5948339100230353e-01  1.0949408300708723e+00  1.0331967894281320e+00  7.7276197900892241e-01  1.0862119825083754e+00  5.7219457684690267e-01  8.9701109380754052e-01  9.2823712051933893e-01  9.1803052617305880e-01  8.6081685450056744e-01  1.0129459973272332e+00  1.0567821307241139e+00  1.1075568216679799e+00  1.1135948569195437e+00  9.4627943648521207e-01  1.0307037708729543e+00  1.1221358421513221e+00  8.9349057377741770e-01  8.7125844808391451e-01  1.1045413132933275e+00  9.4058361347431418e-01  8.8708397210144607e-01  1.0671977730259226e+00  9.1777221145939958e-01  9.2843071582822190e-01  8.1697981702936129e-01  8.4920531862566084e-01  9.0066097119244992e-01  9.1744123038761705e-01  9.0806721046493932e-01  9.3248067505695931e-01  9.4632025375591589e-01  8.5826765484682099e-01  9.0717798977637032e-01  1.0419860344239202e+00  8.0750926294789727e-01  1.0685630815832314e+00  9.1403863917253281e-01  8.9295421015341969e-01  9.0926307901340353e-01  8.7848752475395320e-01  9.4100366097705967e-01  1.0421311466446341e+00  8.1978748827811931e-01  8.8685045761053605e-01  9.0872426809233720e-01  8.4413345291418629e-01  8.7796127786931866e-01  1.0523041119320597e+00  8.6797699303190967e-01  8.2892050920674609e-01  7.3225652949132292e-01  8.4750432262092601e-01  9.4364657064499502e-01  1.0732125220224196e+00  9.4174920128795969e-01  9.0529321894386117e-01  8.3615083048656647e-01  8.8687415406001202e-01  9.3228517137729117e-01  8.3640259131325467e-01  1.0114166273763856e+00  9.8933708947195564e-01  9.7476013085866009e-01  1.0894854585374187e+00  1.1213302661261431e+00  1.0816221508628461e+00  1.0252622221334029e+00  9.8865163359814845e-01  1.0126679503783820e+00  1.1132211948700186e+00  9.4007757266318948e-01  1.1214601274130007e+00  9.3968574273468186e-01  9.5430490278861535e-01  8.2750039907689210e-01  9.4022051752152347e-01  1.0894362952750900e+00  8.9110820166090210e-01  7.5790626279046625e-01  9.3592777043230657e-01  1.0282149906917566e+00  9.3543405769969201e-01  1.1102820210170685e+00  1.0742611309829011e+00  8.5946850151248022e-01  1.0907844796444059e+00  1.1048386250573423e+00  1.0695537241292925e+00  9.0542014193741038e-01  1.0826024072369969e+00  9.2915814957050380e-01  8.3362576963065871e-01  1.0738218988240051e+00  8.6637466724201895e-01  9.8225485984376737e-01  1.0094045470891617e+00  8.2143474320369081e-01  7.2559738126112239e-01  8.2581941211376575e-01  9.1241734110728900e-01  1.0539843953469419e+00  8.0233029311004500e-01  1.1064776695915062e+00  9.0906232167941303e-01  9.6183971711392857e-01  5.8951191598722308e-01  9.4779784614329932e-01  8.1784379410819086e-01  7.4828753860169472e-01  9.6657342590038309e-01  1.0259204554305545e+00  9.9962722123106273e-01  8.6615952149219688e-01  1.0101754604874567e+00  1.0630565758304162e+00  1.1069279243260368e+00  8.6324619937072866e-01  7.9498091880434774e-01  9.1026770313878314e-01  8.7939791717555160e-01  7.4119587337375159e-01  9.0423748997879305e-01  9.8108604033467972e-01  6.8886102701147478e-01  9.9151945769808036e-01  9.4459713283446956e-01  7.5763736897389045e-01  9.0437686074818213e-01  9.7289919165192562e-01  7.5061414024826256e-01  7.4013882176007451e-01  9.8968706976348664e-01  1.0513707512856463e+00  1.1122662583202911e+00  9.3987318119606089e-01  8.8748316750877165e-01  8.5376229499866885e-01  9.7419402551187739e-01  7.3294852640425523e-01  8.8259531562544036e-01  9.6814303896241305e-01  </DataArray> 
</PointData> 
</Piece>
</UnstructuredGrid>
</VTKFile>