<?xml version="1.0"?>
<VTKFile type="UnstructuredGrid"  version="0.1"  >
<UnstructuredGrid>
<Piece  NumberOfPoints="406" NumberOfCells="722">
<Points>
<DataArray  type="Float64"  NumberOfComponents="3"  format="ascii">-6 -2 0  -6 2 0  6 2 0  6 -2 0  -2.8 0 0  -1.2 0 0  -5.500000000001853 -2 0  -5.000000000003705 -2 0  -4.500000000005556 -2 0  -4.000000000007409 -2 0  -3.50000000000926 -2 0  -3.000000000011112 -2 0  -2.500000000012963 -2 0  -2.000000000014814 -2 0  -1.500000000016665 -2 0  -1.000000000018516 -2 0  -0.5000000000203677 -2 0  -2.204547655537681e-11 -2 0  0.4999999999796305 -2 0  0.9999999999814779 -2 0  1.499999999983327 -2 0  1.999999999985175 -2 0  2.499999999987029 -2 0  2.999999999988882 -2 0  3.499999999990735 -2 0  3.999999999992589 -2 0  4.49999999999444 -2 0  4.999999999996293 -2 0  5.499999999998147 -2 0  6 -1.500000000001387 0  6 -1.000000000002774 0  6 -0.5000000000041616 0  6 -5.505595979116151e-12 0  6 0.4999999999958384 0  6 0.9999999999972258 0  6 1.499999999998613 0  5.500000000001853 2 0  5.000000000003705 2 0  4.500000000005556 2 0  4.000000000007409 2 0  3.50000000000926 2 0  3.000000000011112 2 0  2.500000000012963 2 0  2.000000000014814 2 0  1.500000000016665 2 0  1.000000000018516 2 0  0.5000000000203677 2 0  2.204547655537681e-11 2 0  -0.4999999999796305 2 0  -0.9999999999814779 2 0  -1.499999999983327 2 0  -1.999999999985175 2 0  -2.499999999987029 2 0  -2.999999999988882 2 0  -3.499999999990735 2 0  -3.999999999992589 2 0  -4.49999999999444 2 0  -4.999999999996293 2 0  -5.499999999998147 2 0  -6 1.500000000001387 0  -6 1.000000000002774 0  -6 0.5000000000041616 0  -6 5.505595979116151e-12 0  -6 -0.4999999999958384 0  -6 -0.9999999999972258 0  -6 -1.499999999998613 0  -2.776753453941174 -0.1914525314286965 0  -2.708364820523325 -0.3717785376335722 0  -2.598808598538216 -0.5304981265911284 0  -2.454451797386757 -0.65838709271366 0  -2.283683909636528 -0.748012994147384 0  -2.096429344207466 -0.7941670992780535 0  -1.903570655798842 -0.7941670992788195 0  -1.716316090368095 -0.7480129941491368 0  -1.545548202616307 -0.6583870927157747 0  -1.401191401463757 -0.530498126593356 0  -1.291635179477527 -0.371778537635196 0  -1.223246546059047 -0.1914525314295925 0  -1.223246546058803 0.1914525314286035 0  -1.291635179476594 0.3717785376334188 0  -1.401191401461634 0.5304981265909601 0  -1.545548202612898 0.6583870927134221 0  -1.716316090363093 0.7480129941472402 0  -1.903570655792394 0.7941670992780367 0  -2.096429344201276 0.7941670992788055 0  -2.283683909631911 0.7480129941491347 0  -2.454451797383697 0.6583870927157729 0  -2.598808598536385 0.530498126593196 0  -2.70836482052258 0.3717785376349917 0  -2.776753453940975 0.1914525314295042 0  0.4588466633941945 0.2704149791022056 0  -4.424312812173863 0.2760319703992994 0  -3.803977598762586 -0.6841584599595646 0  -0.1330968762779425 -0.6798763971615133 0  2.451109587541276 3.169800318630399e-13 0  -3.563610936250569 0.5929994091167295 0  4.204753319582647 0.2820669554523581 0  -0.4390897559348154 0.6178095532273566 0  -3.041446812595122 1.175550440315544 0  -0.9622132806516797 1.132103015222783 0  1.069493318942931 -0.773608156980569 0  -4.924330687080279 -0.7127064269610045 0  -3.024693497948964 -1.195179289656404 0  -0.9648749555625579 -1.256854520022574 0  -3.443624282349383 -0.2044158249759613 0  -0.5611500783757608 -0.1747080110423833 0  1.60270880116926 0.7487034276124258 0  3.488352576142236 -0.8228939860777884 0  4.816375011670135 -0.8163750116689444 0  3.243628045085357 0.8578172796997985 0  -4.228632884234073 1.228069101636678 0  -2.365220384435482 -1.356128547810356 0  -1.637465979486354 1.3571687267915 0  -1.642380978561139 -1.359365080147485 0  -2.362988915989869 1.356737096243695 0  -5.134120367293631 0.8356299802910161 0  2.077496878467794 -0.9514080034522553 0  4.960859291178299 0.9608592911785537 0  0.3293120056474302 1.148965409695154 0  -5.157560560414062 0.09447106214747865 0  -3.14779387667392 -0.6330563038825547 0  -3.148134455585257 0.4354299640428653 0  -0.8464439673630421 0.4159277415926296 0  -0.9918125625721008 -0.7191748422889824 0  -4.355349213295776 -1.234510499778242 0  1.582074659164868 -0.06850205959954866 0  2.400584045214166 1.204278622181321 0  5.102831660739063 0.03453404176596848 0  4.083259768981113 1.154272958349666 0  -3.992394834362243 -0.1621022234411988 0  0.4290302718942113 -1.225465289645401 0  -3.681487986394671 -1.310544246656267 0  -3.640289698916164 1.187023654838123 0  0.468851680921228 -0.447055967952278 0  3.315209904217932 0.05667935655546536 0  -2.541160649745046 -1.046980928586996 0  -1.45196684542695 1.044189935346116 0  -2.000844595891861 -1.207983108473125 0  -1.453092202970521 -1.061139264918894 0  -2.000050543938391 1.207806685704176 0  -2.548033154566413 1.04418993534851 0  4.13054585796652 -1.232871249381608 0  -0.3301617095463629 1.221692405319566 0  -0.2880491989587189 -1.359626628407983 0  -0.0758941643813178 0.132275811829787 0  2.826389221580753 -1.233168480096227 0  -2.922070412327736 0.7575752117792038 0  1.003070890178416 1.271347915034201 0  -5.319521816151902 -1.310543894393663 0  -1.070407062963812 0.7877698545098388 0  -4.562499863038985 -0.2302396981426722 0  -3.164226661545047 0.07179577787350272 0  -0.9091377812900333 0.132454654016971 0  4.116029045943655 -0.4851826871817362 0  5.316659189209927 -1.316659189208741 0  -0.9498828454673396 -0.4149758979014553 0  -4.037769805263969 0.6896174350675625 0  1.431664772855882 -1.327784137638992 0  -3.646693623568034 0.1600006358878044 0  -2.878371345483476 -0.7910345833001061 0  1.062603041385242 0.2894765870627741 0  -0.547955103783681 0.1635272504420374 0  -4.804809838419659 1.41016301576038 0  -3.042895319571192 -0.3694931303482478 0  -4.59252578392403 0.792267765362792 0  2.823271260730033 -0.5472430318427347 0  -4.28575390662405 -0.7521491832384866 0  -0.5524005545121191 -0.9037367558558163 0  1.815219025072439 1.388812135783969 0  -1.288398729718543 -0.8178399475601057 0  -5.424388493366639 1.35375165044146 0  -2.256991952837567 -1.049538527273222 0  -1.739586738723494 -1.052327527873255 0  -1.738827359988536 1.050180627239116 0  -2.257795730428802 1.049701225145305 0  -0.62222340523776 -0.5483611729237363 0  2.065188519029698 0.5424877383589943 0  0.1055865106318892 0.7347782870471022 0  1.013082573993895 -0.2061877611231605 0  -5.428323520618333 -0.4386412085227075 0  5.374041502384443 -0.5304401760993408 0  3.435185060219232 -1.377658617395091 0  -3.302377238490527 0.8841390072780534 0  -0.9902123298072768 -0.124175295282554 0  0.7186958547669859 0.8724503317343631 0  2.941237214953417 1.390391532351976 0  4.708037787864423 -1.340276032051348 0  5.395029680982659 1.395029680983341 0  3.591022587550188 1.348260650408605 0  2.759385971589342 0.4857447325740718 0  -0.6832705231418494 0.8879387563573758 0  5.437781298507145 0.5981501503262471 0  -2.698603003287285 1.617130043745112 0  -3.463358189947519 -1.013588318179017 0  1.710866040171871 -0.6978716337870808 0  3.642182982762737 0.4555704362064124 0  -2.699802128031161 -1.618310703146212 0  -1.3020054856637 1.619819977935582 0  -2.000000000004996 -1.566396763829867 0  -1.999999999994794 1.566396763830688 0  -1.247812462071684 -1.595232739507426 0  4.59429106759859 1.420052135572917 0  0.9448382581152466 -1.440259145469251 0  -0.116376100998861 -0.2606209011258676 0  -4.774521510507792 0.4245390872783272 0  -2.983910172370106 -0.1208000607277856 0  -3.353983741142061 1.576062863985777 0  -5.473352579109997 0.4917619255280954 0  -4.828650470275986 -1.493148538517745 0  4.639973657165532 -0.2833178611094909 0  -2.660279445404468 0.7699932347178977 0  -1.335045190775955 0.7744876666923373 0  -3.395669172689978 0.2584951122361346 0  2.279110606119369 -1.465899541383697 0  4.734317729212562 0.4520963557364723 0  -0.6334913028224612 1.584213953723378 0  2.121854101359879 -0.4289611127787379 0  -3.474459720833238 -0.4977581316675216 0  -1.066539898844178 0.3411379476537602 0  -3.361849707555382 -1.611428512420182 0  -4.099039818938317 0.3306400369415774 0  -2.935324777364672 0.354721898811665 0  -3.973578595052027 1.482940358734671 0  3.784450148635689 -0.0702780807301525 0  -1.191348122671212 -0.5614501189722798 0  -2.838672605956353 -0.5493179047027598 0  -1.184983441257359 0.5617520886612424 0  -2.811184099847449 0.5574240755049175 0  0.2702752249355158 -0.8003643570420809 0  -0.6945947797857237 -1.593893965175195 0  0.001175881878679056 1.504521009023778 0  0.6072931735145096 1.501814722697789 0  -3.991896293645949 -1.047264188412552 0  -3.734097395159253 -0.3261671578666079 0  -5.539652387691843 -0.8857154182585802 0  -4.395061924111849 1.563293728588296 0  0.2258327611651416 -0.08745142624872881 0  -3.774816634825771 0.8676973328379478 0  2.208484493569073 1.6256686312487 0  0.1309939514660535 -1.566169703482512 0  -5.551414360955331 0.9459842275970113 0  -4.04734138658365 -1.51163984963472 0  -4.947145019546805 -0.3299925153029702 0  4.320410447198621 0.6970857582435144 0  -4.707557346727139 -1.000565649857444 0  1.353711468973986 1.582551234446199 0  1.674156483558973 0.3266252271732694 0  -4.039105552973997 -0.4537604746027087 0  0.01051727619263377 -1.088858357362194 0  -0.2234942609176301 0.8619127912343982 0  -2.95903482691863 0.1219373374385197 0  -4.682467695920681 0.0804575682243254 0  5.535750224195656 -0.1525732643419722 0  -4.290083947414376 -0.0005258314026840717 0  1.136102562417988 0.7655312464039168 0  -2.816589394567214 0.9927597419785312 0  -2.645374456162409 -0.7645902451387543 0  4.18414576655837 1.624276131878667 0  0.7127337088822223 -0.9006358935856398 0  1.972418102153911 0.9727040774616764 0  -2.42199174813501 0.8591219219254587 0  -2.418604734200992 -0.8552987735117754 0  -5.573597213364169 -0.03612430678117123 0  2.024792870869397 0.05574071630590883 0  -1.578875191508968 0.861424470724936 0  -1.54706008231699 -0.8630049102346303 0  3.848662181064435 -1.569601980075533 0  -2.000000000003871 -0.9746445732264465 0  -1.99999999
[...]
<PointData  Scalars="f_24"> 
<DataArray  type="Float64"  Name="f_24"  format="ascii">-7.8711056118388023e-01  -7.8711056118388023e-01  0.0000000000000000e+00  0.0000000000000000e+00  -9.5783481489990585e-01  -1.9758510029376483e-01  -7.7790182367496385e-01  -7.6874541287251519e-01  -7.5748590487995238e-01  -7.4445711091778455e-01  -7.2778889105052325e-01  -6.9710321872360026e-01  -6.4543011778078119e-01  -5.3772367947509725e-01  -3.9547733680681396e-01  -2.7168204791774264e-01  -1.9269473983849594e-01  -1.4706403001259249e-01  -1.1914835172042154e-01  -1.0048341893349348e-01  -8.6075980151441162e-02  -7.4587884129311555e-02  -6.3022116063275596e-02  -5.3884067037702918e-02  -4.4425715630679749e-02  -3.4996255827964382e-02  -2.5960620392725967e-02  -1.7103901078666280e-02  -8.9213536871453284e-03  0.0000000000000000e+00  0.0000000000000000e+00  0.0000000000000000e+00  0.0000000000000000e+00  0.0000000000000000e+00  0.0000000000000000e+00  0.0000000000000000e+00  -8.8818326601920530e-03  -1.7313233475796941e-02  -2.6073609656830303e-02  -3.5427474757226310e-02  -4.4247787380135198e-02  -5.3656398193141094e-02  -6.3578015865336707e-02  -7.4377539780479729e-02  -8.5858995180252778e-02  -1.0030054187685707e-01  -1.1912423646841544e-01  -1.4715154029047325e-01  -1.9191644459788845e-01  -2.7267487282724145e-01  -3.9455215855366099e-01  -5.3783748513691110e-01  -6.4548253356675578e-01  -6.9687304885492041e-01  -7.2793786670981153e-01  -7.4452631679971382e-01  -7.5826690835734534e-01  -7.6821137263744477e-01  -7.7801179098184936e-01  -7.8711056118388023e-01  -7.8711056118388023e-01  -7.8711056118388023e-01  -7.8711056118388023e-01  -7.8711056118388023e-01  -7.8711056118388023e-01  -7.8711056118388023e-01  -9.5247345800473804e-01  -9.3577342814231312e-01  -8.8404447825047339e-01  -7.9178891098929249e-01  -6.7343492098788083e-01  -5.3741945880822983e-01  -4.1010532946871520e-01  -3.0906600930801614e-01  -2.4845960346401039e-01  -2.1823087208297498e-01  -2.0588828222001976e-01  -1.9965065964136527e-01  -1.9961472013869941e-01  -2.0586592874291687e-01  -2.1891941029943468e-01  -2.4795913049372756e-01  -3.0862453665477929e-01  -4.1029832107516623e-01  -5.3742127505254911e-01  -6.7301201281135847e-01  -7.9236896497857356e-01  -8.8341886249345458e-01  -9.3375352065394746e-01  -9.5393771090259483e-01  -1.3349783186490644e-01  -7.6953291767069076e-01  -7.6158812844188017e-01  -1.6580782163780863e-01  -6.8367748582448817e-02  -7.7167355720964537e-01  -3.2312631143406163e-02  -1.8485970327457871e-01  -7.1043987994055791e-01  -2.5892041887155537e-01  -1.0548667664695104e-01  -7.7005831488500653e-01  -7.0727244978252102e-01  -2.6644459413190746e-01  -8.0371437036227411e-01  -1.8543308181742454e-01  -8.8648926029097061e-02  -4.5557706148274181e-02  -2.0917997273203953e-02  -5.0305401412390288e-02  -7.5218637604692784e-01  -6.1737368498181444e-01  -4.3167485284176749e-01  -4.3312493111132172e-01  -6.1687407206970823e-01  -7.7269575559931880e-01  -7.5543466200008166e-02  -1.8335712838251084e-02  -1.3618190312450346e-01  -7.7542061246798077e-01  -7.8674295278538819e-01  -8.1880393274138930e-01  -2.0330068169092438e-01  -2.2906083218752285e-01  -7.5494367952686592e-01  -9.1348930342752571e-02  -6.7313857974094338e-02  -1.5959566779638206e-02  -3.4146643538180546e-02  -7.7508005945350156e-01  -1.3037995404016084e-01  -7.3400703210495255e-01  -7.3567616989879614e-01  -1.3255969552235117e-01  -4.9611732432830610e-02  -6.8428766426647358e-01  -3.4502559590741716e-01  -5.3659574959941203e-01  -3.4756884254987436e-01  -5.3637722221997175e-01  -6.8646617908990581e-01  -3.3159444617185313e-02  -1.8434226980096305e-01  -1.8042765616439366e-01  -1.6076210619434680e-01  -5.8205043070334042e-02  -7.7600836800050454e-01  -1.0517929020958962e-01  -7.7462632723435221e-01  -2.4432615350386452e-01  -7.7011142172403035e-01  -8.4861012123483825e-01  -1.9711931034642483e-01  -3.3874487697514666e-02  -1.1895848697294178e-02  -2.0715035306664958e-01  -7.6161237903708612e-01  -9.1106438240996693e-02  -7.8950955524425703e-01  -7.6884683483250382e-01  -1.0817588959761441e-01  -1.8485440131174505e-01  -7.6421415817507354e-01  -8.4664322861624819e-01  -7.6478045678144646e-01  -5.9491971652234243e-02  -7.6136470256835220e-01  -2.0020128572971443e-01  -8.0595181479833147e-02  -2.6959751451279923e-01  -7.7654184647784197e-01  -6.2282649346292551e-01  -4.2884356240999205e-01  -4.2816275721672925e-01  -6.2301851252389873e-01  -1.9488896505430250e-01  -7.7018510213996666e-02  -1.5092791625336266e-01  -1.1027021847207247e-01  -7.7814708953034739e-01  -1.1063311439887921e-02  -4.6005381410940342e-02  -7.4989374331115066e-01  -1.9841655839815117e-01  -1.1863240352813453e-01  -5.5673635165602996e-02  -2.2672990204019978e-02  -1.0535597575992805e-02  -4.3186274147469339e-02  -6.0947623073889942e-02  -2.1171946681914869e-01  -9.9178469210947640e-03  -6.5550788644896629e-01  -7.3977185920260935e-01  -8.5790278833597522e-02  -4.2944964627417134e-02  -6.5565262920261669e-01  -3.4889038633755998e-01  -5.3066381940165175e-01  -5.3067105088379474e-01  -3.3430688867079184e-01  -2.4701170810803155e-02  -1.0646896379994730e-01  -1.6319461028096302e-01  -7.7028417414446193e-01  -8.9235281990510573e-01  -7.1300008906898327e-01  -7.7890477189222895e-01  -7.6436559611602262e-01  -2.4298619613863894e-02  -7.7725825436194540e-01  -2.6586162142489439e-01  -8.0430986605494159e-01  -6.9456971846835719e-02  -2.2542131022526557e-02  -2.2130535553853470e-01  -7.5895214617756668e-02  -7.8237194380678277e-01  -2.0544915921147727e-01  -7.1383039188908504e-01  -7.7079571002826830e-01  -8.7394753387225821e-01  -7.4199668151399889e-01  -4.0334358157943076e-02  -2.2395181041736720e-01  -8.4290777323594901e-01  -2.2341490310473980e-01  -8.4617070084104629e-01  -1.4113673879452099e-01  -2.2888524266725185e-01  -1.5628942358300474e-01  -1.2035128338234238e-01  -7.4990017141976861e-01  -7.7974751197509995e-01  -7.7923972082912640e-01  -7.5425927339016596e-01  -1.4508362432196675e-01  -7.5339712151947558e-01  -7.0698832908162992e-02  -1.4614018728393494e-01  -7.7941452132587807e-01  -7.4422069855182560e-01  -7.7245251798295733e-01  -3.0025457763498367e-02  -7.6424614311254457e-01  -9.2489187125495378e-02  -8.8088251403872109e-02  -7.6856634554802605e-01  -1.5657761964796879e-01  -1.7245519938251508e-01  -9.0057486024547762e-01  -7.7104104623861758e-01  -8.2419739082896827e-03  -7.7150874646220746e-01  -1.0316749017515284e-01  -7.2240787674038709e-01  -7.7828557748999816e-01  -3.2166300180072327e-02  -1.1877472194240588e-01  -7.7925050413424693e-02  -7.1091626410532227e-01  -7.1028435858135441e-01  -7.8046561956510419e-01  -7.8898981086459860e-02  -3.2384034876717832e-01  -3.1764659705273168e-01  -3.8182848442556962e-02  -5.1602069953265195e-01  -5.1602350340634573e-01  -6.7665154103927005e-01  -4.2409873758961047e-02  -2.8912323594216033e-01  -1.2391423106516765e-01  -6.8613966071330232e-03  -7.2876151450936792e-03  -5.8594816948196390e-02  -3.2912515448197366e-01  -2.8079702312998778e-01  -6.5230509152763072e-02  -2.8960315570158247e-02  -3.0872737063064239e-02  -8.1389378849293967e-02  -1.4954313493325319e-01  -8.1168386943086934e-01  -5.8737462806596766e-02  -6.7621381435933270e-01  -7.8065025611525651e-01  -3.7505803221677202e-02  -5.0331119330580751e-02  -1.7503979606377396e-02  -1.7430638916137964e-01  -1.6394259325900054e-01  -1.9249993488470021e-01  -3.3631338302493907e-01  -5.9242558951482262e-02  -7.4026492256239662e-01  -1.1970695083118019e-01  -7.7393087309440767e-01  -7.7972839508946012e-01  -5.2554572386946920e-02  -1.9604836842479353e-01  -7.6623231512605927e-01  -7.2496245655599290e-01  -2.1327449858494585e-01  -7.5567182871075012e-01  -5.3985213898739101e-02  -2.0934384076959203e-01  -9.4283688878700311e-02  -5.9664382075896027e-01  -4.4992252942939448e-01  -4.4803409586949661e-01  -5.9657769569188990e-01  -9.1416555180550238e-02  -7.1878957673471278e-01  -4.9470299005099604e-02  -2.2378540514088699e-01  -6.8754680325493044e-03  -7.7131159468608068e-01  -8.5151558732998123e-01  -7.3235162019501199e-01  -1.1946261217313907e-01  -9.8640815302759713e-02  -2.5493831983702340e-02  -7.8780955046499734e-01  -1.1672538099718675e-01  -7.7121908877984002e-01  -7.6756075844779292e-01  -7.7239826497167263e-01  -8.1238288758978050e-01  -8.3630618178669902e-01  -1.4825267838872166e-01  -4.1494164253069177e-02  -1.9170799695449092e-01  -9.3660376472450790e-02  -7.6554875035262515e-01  -1.7978217618052247e-01  -1.9842878269843742e-01  -7.5006272222515125e-03  -1.6450409442656192e-02  -2.0491549602745279e-01  -1.8101578359983400e-01  -1.7315442546092151e-02  -5.2106181811447529e-02  -7.7064898024160600e-01  -6.1434556034974566e-02  -1.1944996057240945e-01  -7.8934887797540176e-01  -7.4894081329059981e-01  -7.8172851546082978e-01  -2.2871769369482850e-01  -7.5852364225742264e-01  -1.4518970455397753e-02  -2.5285950391034158e-02  -8.9985392149270771e-01  -1.7449798686034615e-01  -1.3335072430909961e-01  -1.0545561207505130e-01  -7.8067421812221771e-01  -3.9066162862707546e-02  -3.1092078518120587e-02  -7.3016838582778065e-01  -7.1195142774933751e-01  -7.7352397031355191e-01  -5.8613869078987454e-03  -1.9360915089659345e-01  -6.6070269250901925e-02  -6.7475757627738581e-02  -1.7650842238521031e-01  -1.0188062616814771e-01  -8.1972133760816102e-01  -1.0255617286356231e-01  -1.5873074567496681e-01  -7.8247836811682259e-01  -2.1637234975915476e-01  -6.9180252244435636e-01  -7.7811530161192299e-01  -7.6915773368699270e-01  -8.0286731112945792e-02  -4.0156618737708136e-02  -2.7495051894443584e-01  -5.0621726587645544e-03  -7.8286922056501973e-01  -7.7425961366458107e-01  -8.1110574588852943e-02  -7.5953634353993349e-01  -7.5400862585814821e-01  -7.6310433487568397e-01  -1.3397268094507897e-01  -7.3776043848588779e-01  -7.4894524764055204e-01  -7.5936809063250688e-01  -3.6647427340617808e-02  -6.9799208714366179e-02  -1.6238745677982867e-02  -2.4793361714495155e-01  -6.9147751317612915e-01  -1.8436244738588381e-01  -1.7680965233308696e-01  -7.6938144518886931e-01  -4.9905915364754874e-02  -6.1596258034214169e-01  -6.1557243170206410e-01  -3.9248885021083663e-01  -3.9060471287274218e-01  -9.7167578207938921e-02  -8.4794335894590539e-02  </DataArray> 
</PointData> 
</Piece>
</UnstructuredGrid>
</VTKFile>