<?xml version="1.0"?>
<VTKFile type="UnstructuredGrid"  version="0.1"  >
<UnstructuredGrid>
<Piece  NumberOfPoints="406" NumberOfCells="722">
<Points>
<DataArray  type="Float64"  NumberOfComponents="3"  format="ascii">-6 -2 0  -6 2 0  6 2 0  6 -2 0  -2.8 0 0  -1.2 0 0  -5.500000000001853 -2 0  -5.000000000003705 -2 0  -4.500000000005556 -2 0  -4.000000000007409 -2 0  -3.50000000000926 -2 0  -3.000000000011112 -2 0  -2.500000000012963 -2 0  -2.000000000014814 -2 0  -1.500000000016665 -2 0  -1.000000000018516 -2 0  -0.5000000000203677 -2 0  -2.204547655537681e-11 -2 0  0.4999999999796305 -2 0  0.9999999999814779 -2 0  1.499999999983327 -2 0  1.999999999985175 -2 0  2.499999999987029 -2 0  2.999999999988882 -2 0  3.499999999990735 -2 0  3.999999999992589 -2 0  4.49999999999444 -2 0  4.999999999996293 -2 0  5.499999999998147 -2 0  6 -1.500000000001387 0  6 -1.000000000002774 0  6 -0.5000000000041616 0  6 -5.505595979116151e-12 0  6 0.4999999999958384 0  6 0.9999999999972258 0  6 1.499999999998613 0  5.500000000001853 2 0  5.000000000003705 2 0  4.500000000005556 2 0  4.000000000007409 2 0  3.50000000000926 2 0  3.000000000011112 2 0  2.500000000012963 2 0  2.000000000014814 2 0  1.500000000016665 2 0  1.000000000018516 2 0  0.5000000000203677 2 0  2.204547655537681e-11 2 0  -0.4999999999796305 2 0  -0.9999999999814779 2 0  -1.499999999983327 2 0  -1.999999999985175 2 0  -2.499999999987029 2 0  -2.999999999988882 2 0  -3.499999999990735 2 0  -3.999999999992589 2 0  -4.49999999999444 2 0  -4.999999999996293 2 0  -5.499999999998147 2 0  -6 1.500000000001387 0  -6 1.000000000002774 0  -6 0.5000000000041616 0  -6 5.505595979116151e-12 0  -6 -0.4999999999958384 0  -6 -0.9999999999972258 0  -6 -1.499999999998613 0  -2.776753453941174 -0.1914525314286965 0  -2.708364820523325 -0.3717785376335722 0  -2.598808598538216 -0.5304981265911284 0  -2.454451797386757 -0.65838709271366 0  -2.283683909636528 -0.748012994147384 0  -2.096429344207466 -0.7941670992780535 0  -1.903570655798842 -0.7941670992788195 0  -1.716316090368095 -0.7480129941491368 0  -1.545548202616307 -0.6583870927157747 0  -1.401191401463757 -0.530498126593356 0  -1.291635179477527 -0.371778537635196 0  -1.223246546059047 -0.1914525314295925 0  -1.223246546058803 0.1914525314286035 0  -1.291635179476594 0.3717785376334188 0  -1.401191401461634 0.5304981265909601 0  -1.545548202612898 0.6583870927134221 0  -1.716316090363093 0.7480129941472402 0  -1.903570655792394 0.7941670992780367 0  -2.096429344201276 0.7941670992788055 0  -2.283683909631911 0.7480129941491347 0  -2.454451797383697 0.6583870927157729 0  -2.598808598536385 0.530498126593196 0  -2.70836482052258 0.3717785376349917 0  -2.776753453940975 0.1914525314295042 0  0.4588466633941945 0.2704149791022056 0  -4.424312812173863 0.2760319703992994 0  -3.803977598762586 -0.6841584599595646 0  -0.1330968762779425 -0.6798763971615133 0  2.451109587541276 3.169800318630399e-13 0  -3.563610936250569 0.5929994091167295 0  4.204753319582647 0.2820669554523581 0  -0.4390897559348154 0.6178095532273566 0  -3.041446812595122 1.175550440315544 0  -0.9622132806516797 1.132103015222783 0  1.069493318942931 -0.773608156980569 0  -4.924330687080279 -0.7127064269610045 0  -3.024693497948964 -1.195179289656404 0  -0.9648749555625579 -1.256854520022574 0  -3.443624282349383 -0.2044158249759613 0  -0.5611500783757608 -0.1747080110423833 0  1.60270880116926 0.7487034276124258 0  3.488352576142236 -0.8228939860777884 0  4.816375011670135 -0.8163750116689444 0  3.243628045085357 0.8578172796997985 0  -4.228632884234073 1.228069101636678 0  -2.365220384435482 -1.356128547810356 0  -1.637465979486354 1.3571687267915 0  -1.642380978561139 -1.359365080147485 0  -2.362988915989869 1.356737096243695 0  -5.134120367293631 0.8356299802910161 0  2.077496878467794 -0.9514080034522553 0  4.960859291178299 0.9608592911785537 0  0.3293120056474302 1.148965409695154 0  -5.157560560414062 0.09447106214747865 0  -3.14779387667392 -0.6330563038825547 0  -3.148134455585257 0.4354299640428653 0  -0.8464439673630421 0.4159277415926296 0  -0.9918125625721008 -0.7191748422889824 0  -4.355349213295776 -1.234510499778242 0  1.582074659164868 -0.06850205959954866 0  2.400584045214166 1.204278622181321 0  5.102831660739063 0.03453404176596848 0  4.083259768981113 1.154272958349666 0  -3.992394834362243 -0.1621022234411988 0  0.4290302718942113 -1.225465289645401 0  -3.681487986394671 -1.310544246656267 0  -3.640289698916164 1.187023654838123 0  0.468851680921228 -0.447055967952278 0  3.315209904217932 0.05667935655546536 0  -2.541160649745046 -1.046980928586996 0  -1.45196684542695 1.044189935346116 0  -2.000844595891861 -1.207983108473125 0  -1.453092202970521 -1.061139264918894 0  -2.000050543938391 1.207806685704176 0  -2.548033154566413 1.04418993534851 0  4.13054585796652 -1.232871249381608 0  -0.3301617095463629 1.221692405319566 0  -0.2880491989587189 -1.359626628407983 0  -0.0758941643813178 0.132275811829787 0  2.826389221580753 -1.233168480096227 0  -2.922070412327736 0.7575752117792038 0  1.003070890178416 1.271347915034201 0  -5.319521816151902 -1.310543894393663 0  -1.070407062963812 0.7877698545098388 0  -4.562499863038985 -0.2302396981426722 0  -3.164226661545047 0.07179577787350272 0  -0.9091377812900333 0.132454654016971 0  4.116029045943655 -0.4851826871817362 0  5.316659189209927 -1.316659189208741 0  -0.9498828454673396 -0.4149758979014553 0  -4.037769805263969 0.6896174350675625 0  1.431664772855882 -1.327784137638992 0  -3.646693623568034 0.1600006358878044 0  -2.878371345483476 -0.7910345833001061 0  1.062603041385242 0.2894765870627741 0  -0.547955103783681 0.1635272504420374 0  -4.804809838419659 1.41016301576038 0  -3.042895319571192 -0.3694931303482478 0  -4.59252578392403 0.792267765362792 0  2.823271260730033 -0.5472430318427347 0  -4.28575390662405 -0.7521491832384866 0  -0.5524005545121191 -0.9037367558558163 0  1.815219025072439 1.388812135783969 0  -1.288398729718543 -0.8178399475601057 0  -5.424388493366639 1.35375165044146 0  -2.256991952837567 -1.049538527273222 0  -1.739586738723494 -1.052327527873255 0  -1.738827359988536 1.050180627239116 0  -2.257795730428802 1.049701225145305 0  -0.62222340523776 -0.5483611729237363 0  2.065188519029698 0.5424877383589943 0  0.1055865106318892 0.7347782870471022 0  1.013082573993895 -0.2061877611231605 0  -5.428323520618333 -0.4386412085227075 0  5.374041502384443 -0.5304401760993408 0  3.435185060219232 -1.377658617395091 0  -3.302377238490527 0.8841390072780534 0  -0.9902123298072768 -0.124175295282554 0  0.7186958547669859 0.8724503317343631 0  2.941237214953417 1.390391532351976 0  4.708037787864423 -1.340276032051348 0  5.395029680982659 1.395029680983341 0  3.591022587550188 1.348260650408605 0  2.759385971589342 0.4857447325740718 0  -0.6832705231418494 0.8879387563573758 0  5.437781298507145 0.5981501503262471 0  -2.698603003287285 1.617130043745112 0  -3.463358189947519 -1.013588318179017 0  1.710866040171871 -0.6978716337870808 0  3.642182982762737 0.4555704362064124 0  -2.699802128031161 -1.618310703146212 0  -1.3020054856637 1.619819977935582 0  -2.000000000004996 -1.566396763829867 0  -1.999999999994794 1.566396763830688 0  -1.247812462071684 -1.595232739507426 0  4.59429106759859 1.420052135572917 0  0.9448382581152466 -1.440259145469251 0  -0.116376100998861 -0.2606209011258676 0  -4.774521510507792 0.4245390872783272 0  -2.983910172370106 -0.1208000607277856 0  -3.353983741142061 1.576062863985777 0  -5.473352579109997 0.4917619255280954 0  -4.828650470275986 -1.493148538517745 0  4.639973657165532 -0.2833178611094909 0  -2.660279445404468 0.7699932347178977 0  -1.335045190775955 0.7744876666923373 0  -3.395669172689978 0.2584951122361346 0  2.279110606119369 -1.465899541383697 0  4.734317729212562 0.4520963557364723 0  -0.6334913028224612 1.584213953723378 0  2.121854101359879 -0.4289611127787379 0  -3.474459720833238 -0.4977581316675216 0  -1.066539898844178 0.3411379476537602 0  -3.361849707555382 -1.611428512420182 0  -4.099039818938317 0.3306400369415774 0  -2.935324777364672 0.354721898811665 0  -3.973578595052027 1.482940358734671 0  3.784450148635689 -0.0702780807301525 0  -1.191348122671212 -0.5614501189722798 0  -2.838672605956353 -0.5493179047027598 0  -1.184983441257359 0.5617520886612424 0  -2.811184099847449 0.5574240755049175 0  0.2702752249355158 -0.8003643570420809 0  -0.6945947797857237 -1.593893965175195 0  0.001175881878679056 1.504521009023778 0  0.6072931735145096 1.501814722697789 0  -3.991896293645949 -1.047264188412552 0  -3.734097395159253 -0.3261671578666079 0  -5.539652387691843 -0.8857154182585802 0  -4.395061924111849 1.563293728588296 0  0.2258327611651416 -0.08745142624872881 0  -3.774816634825771 0.8676973328379478 0  2.208484493569073 1.6256686312487 0  0.1309939514660535 -1.566169703482512 0  -5.551414360955331 0.9459842275970113 0  -4.04734138658365 -1.51163984963472 0  -4.947145019546805 -0.3299925153029702 0  4.320410447198621 0.6970857582435144 0  -4.707557346727139 -1.000565649857444 0  1.353711468973986 1.582551234446199 0  1.674156483558973 0.3266252271732694 0  -4.039105552973997 -0.4537604746027087 0  0.01051727619263377 -1.088858357362194 0  -0.2234942609176301 0.8619127912343982 0  -2.95903482691863 0.1219373374385197 0  -4.682467695920681 0.0804575682243254 0  5.535750224195656 -0.1525732643419722 0  -4.290083947414376 -0.0005258314026840717 0  1.136102562417988 0.7655312464039168 0  -2.816589394567214 0.9927597419785312 0  -2.645374456162409 -0.7645902451387543 0  4.18414576655837 1.624276131878667 0  0.7127337088822223 -0.9006358935856398 0  1.972418102153911 0.9727040774616764 0  -2.42199174813501 0.8591219219254587 0  -2.418604734200992 -0.8552987735117754 0  -5.573597213364169 -0.03612430678117123 0  2.024792870869397 0.05574071630590883 0  -1.578875191508968 0.861424470724936 0  -1.54706008231699 -0.8630049102346303 0  3.848662181064435 -1.569601980075533 0  -2.000000000003871 -0.9746445732264465 0  -1.99999999
[...]
<PointData  Scalars="f_24"> 
<DataArray  type="Float64"  Name="f_24"  format="ascii">-6.1101793473647198e-03  -6.1101793473647198e-03  0.0000000000000000e+00  0.0000000000000000e+00  -3.1374878132835621e-01  1.7115693738054333e-01  -2.5242787539355320e-02  -4.4006023012658352e-02  -6.1898099301407418e-02  -7.8602082275142079e-02  -9.3539218914006197e-02  -9.9952636573904283e-02  -9.1493599792891372e-02  -3.3958551860795751e-02  5.7823513104225524e-02  1.3689505955799852e-01  1.7870916371210138e-01  1.9233723698842986e-01  1.9003844804601827e-01  1.7975715668842013e-01  1.6579195048876955e-01  1.4941366543609813e-01  1.3234536401575608e-01  1.1412083578076636e-01  9.5366551932321686e-02  7.6784394490015728e-02  5.7791673796225219e-02  3.8631958415874232e-02  1.9304565197094566e-02  0.0000000000000000e+00  0.0000000000000000e+00  0.0000000000000000e+00  0.0000000000000000e+00  0.0000000000000000e+00  0.0000000000000000e+00  0.0000000000000000e+00  1.9309739590537330e-02  3.8560843692279315e-02  5.7623424149146805e-02  7.6609194906452224e-02  9.5504618575045663e-02  1.1410450803112467e-01  1.3216741649113056e-01  1.4952976134519858e-01  1.6596408477706595e-01  1.7992067656791533e-01  1.9000411438405351e-01  1.9222959977028115e-01  1.7933237428888901e-01  1.3615832243387799e-01  5.8540250681841398e-02  -3.4042314819695746e-02  -9.1530555560466006e-02  -9.9810110788319736e-02  -9.3695517033779763e-02  -7.8782763306348938e-02  -6.2249100388588677e-02  -4.3765209507102797e-02  -2.5257533184430258e-02  -6.1101793473647198e-03  -6.1101793473647198e-03  -6.1101793473647198e-03  -6.1101793473647198e-03  -6.1101793473647198e-03  -6.1101793473647198e-03  -6.1101793473647198e-03  -3.1234073191417799e-01  -3.0699873100355579e-01  -2.7371764309150970e-01  -2.0597775828696313e-01  -1.1628729207516873e-01  -1.2947022506023897e-02  7.9885504522839948e-02  1.4645968431965767e-01  1.7659002267657253e-01  1.8171872924565668e-01  1.7663329300397529e-01  1.7242789223874469e-01  1.7241979586986458e-01  1.7657192770940600e-01  1.8145576922357684e-01  1.7717738251611720e-01  1.4696315344544875e-01  7.9718150100738072e-02  -1.2938931185438544e-02  -1.1590689948664831e-01  -2.0654083237852347e-01  -2.7325744136327601e-01  -3.0516672585002047e-01  -3.1382635828853328e-01  1.7488559826423503e-01  -7.4797688102586010e-02  -1.0115753658441518e-01  1.7485252903357809e-01  1.3000972192686455e-01  -1.2233149155235933e-01  6.8062075437498579e-02  1.7029925348963129e-01  -1.0298522207342244e-01  1.3749894631043999e-01  1.7007799058988179e-01  -4.8878549652963843e-02  -1.0147162407542931e-01  1.3287826770359101e-01  -1.5500659538396286e-01  1.7097551514912390e-01  1.5712665710320142e-01  9.4878300350414280e-02  4.5266600589654635e-02  1.0381595063621919e-01  -7.1410378628212284e-02  -7.2096327646547678e-02  3.3006119237545033e-02  3.2059677233482818e-02  -7.1830129547079846e-02  -3.9988072397936988e-02  1.4378103743549769e-01  3.9777164965894007e-02  1.8185690373122371e-01  -4.0953125836876506e-02  -1.5795050588492079e-01  -1.8401254393105035e-01  1.6741263361632905e-01  1.5730711568785907e-01  -6.6922149797909267e-02  1.5542691523324301e-01  1.3398446691014149e-01  3.4204646698666040e-02  7.3033688695725976e-02  -1.0219601721817446e-01  1.8215750314760934e-01  -8.6210491153245278e-02  -8.9495841947575830e-02  1.7563623625842753e-01  1.0049482881190178e-01  -1.1377305446088497e-01  9.3112660162455896e-02  -3.0134288535592805e-02  9.1082002140192977e-02  -2.9998444316778280e-02  -1.1508968838929776e-01  7.1338673245745277e-02  1.7232073066078665e-01  1.7472413736275683e-01  1.7444134120388616e-01  1.1923186721470554e-01  -1.6330367622915298e-01  1.7463200832105352e-01  -3.1872164540871176e-02  1.4987448969973802e-01  -6.7975346061812880e-02  -2.0685944114264904e-01  1.7017589190796961e-01  7.1460842848901501e-02  2.6373355751417915e-02  1.6733828761132286e-01  -8.8755460232161895e-02  1.6450143421842536e-01  -1.3244536348182137e-01  -1.6020374597747594e-01  1.6741155578256894e-01  1.7106069618673786e-01  -5.0683090486124058e-02  -2.1279242837532025e-01  -6.2072138873000740e-02  1.1811561649559135e-01  -7.5439110750323876e-02  1.6502986403897582e-01  1.5348756340601705e-01  1.4234902502250382e-01  -2.7899078754390936e-02  -8.2384475432680446e-02  4.3565475513960492e-02  4.4101933811724545e-02  -8.2487106711734814e-02  1.6799942928169020e-01  1.4292264810327623e-01  1.7766569687932113e-01  1.6799237111201926e-01  -2.8869596524365371e-02  2.3943483592228629e-02  9.7388347586706614e-02  -1.1921042376772324e-01  1.7056628181613229e-01  1.7672285880936123e-01  1.1536574606437527e-01  4.9538110599086922e-02  2.3298068180574463e-02  9.1509887139225227e-02  1.2022973392687185e-01  1.6065200328250082e-01  2.1504761325856773e-02  -8.2409252288111579e-02  -1.0217400287647412e-01  1.5393458629205770e-01  8.8885227184916898e-02  -8.2468232265624733e-02  8.4826658564253130e-02  -2.5807198097821043e-02  -2.5804397224412037e-02  9.3926285359022380e-02  5.3833022503370860e-02  1.7679190492486940e-01  1.7416540645747744e-01  -5.6931957934604989e-02  -2.5245360845545112e-01  -8.8716596203528356e-02  -2.7139431725828184e-02  -4.9630002606102154e-02  5.1741587091309042e-02  -1.8196837454087034e-01  1.4797151034390038e-01  -1.5810158087175319e-01  1.3860761763362350e-01  4.8223978153588365e-02  1.5835079919463729e-01  1.4086094200624194e-01  -1.3588139166198418e-01  1.7025922408971225e-01  -8.9107165701937066e-02  -9.3018015602604323e-02  -2.4172797189156636e-01  -7.7313534380770946e-02  8.3540880148797486e-02  1.6693050512192659e-01  -2.2349731450062407e-01  1.6724408888743361e-01  -2.2823155955770660e-01  1.7895288495862310e-01  1.5500774919517843e-01  1.8223353258904490e-01  1.8236543454772311e-01  -8.1880638340880857e-02  -1.1973643406056660e-01  -2.3950944106914937e-02  -6.4620299494851277e-02  1.7520580205119610e-01  -9.6143044438732533e-02  1.4137534217023076e-01  1.8475484350644472e-01  -2.3483011248100000e-02  -7.5130770958291015e-02  -4.9607641537653915e-02  6.3871823543882184e-02  -5.5628117249656363e-02  1.6768145482962379e-01  1.5361072663392383e-01  -9.4364806648351202e-02  1.7938493588039298e-01  1.7432732778218218e-01  -2.6052503611938616e-01  -6.2403238090728522e-02  1.7715009759557778e-02  -8.3516041649695227e-02  1.6870580713148536e-01  -1.2638940257842979e-01  -1.8388631644800668e-01  6.9348176555019972e-02  1.7704120105163776e-01  1.4728232702445357e-01  -1.4263837980858779e-01  -1.4222732819495704e-01  -2.3076980231571897e-02  1.4325280183923311e-01  1.2068523711627714e-01  1.2308844561125097e-01  8.2127614906367871e-02  -8.1466280572478466e-03  -8.1337762510577793e-03  -9.4318226205976019e-02  8.9047568538398930e-02  1.2433843428980233e-01  1.7259904760494649e-01  1.5148697699231958e-02  1.5973981780347250e-02  1.1871042529661080e-01  9.6684654024466160e-02  1.2784285007509880e-01  1.2903989980863798e-01  6.1978371272983841e-02  6.6839967032910480e-02  1.5593561880756965e-01  1.7632245967835880e-01  -1.7123340661167491e-01  1.1570031678427048e-01  -9.3921859149185286e-02  -1.5344494793437441e-01  7.9338886314981066e-02  1.0233489703268327e-01  3.8445226553812405e-02  1.7267028183845440e-01  1.7446016655879340e-01  1.7035602557809473e-01  9.2429635218601314e-02  1.2271982752236624e-01  -1.2127567042714728e-01  1.8411206714043193e-01  -1.1246592928081575e-01  -2.1566722880103476e-02  1.0611916007574704e-01  1.6934487891090533e-01  -5.1286315948601786e-02  -9.7330174145001086e-02  1.6002617604966440e-01  -6.2820762564963106e-02  1.1037835459626832e-01  1.6367734497255312e-01  1.6978131708910715e-01  -6.0567631199464990e-02  2.2413502489175074e-02  2.3560685117965365e-02  -6.0530368932592983e-02  1.6322173256091216e-01  -9.4321782487825537e-02  1.0472596884480180e-01  1.5523022026335317e-01  1.5243092350862667e-02  -4.0851306313348032e-02  -2.1361162801500369e-01  -8.3996209262176033e-02  1.7978628475293235e-01  1.6298011664372899e-01  5.4875861383152008e-02  -1.4836553121683418e-01  1.7240262796587238e-01  -3.7758304378019990e-02  -6.3096652753124829e-02  -3.5610314007904355e-02  -1.6416926274372509e-01  -1.9394402105865130e-01  1.7553072559214061e-01  8.6229930115762743e-02  1.6901242776749587e-01  1.6321845191134654e-01  -7.4985191219075792e-02  1.7145908397657164e-01  1.7120621868008459e-01  1.6130127579780204e-02  3.6375827023657145e-02  1.7171383576556692e-01  1.7701752608874127e-01  3.7133532656560546e-02  1.0929411179563324e-01  -4.0296504830526186e-02  1.2634427510398136e-01  1.7303546626513580e-01  -1.3125369774506970e-01  -8.2327053397456995e-02  -1.7821748527242658e-02  1.5351138079364612e-01  -7.3229840234830729e-02  3.1721834928335337e-02  5.3686333305919758e-02  -2.6688565663591513e-01  1.8029481368541364e-01  1.7708379359359772e-01  1.7792551347121421e-01  -1.9702852047015083e-02  8.4036130081181784e-02  6.5450498988823144e-02  -8.4593966910334467e-02  -1.2025119163672032e-01  -4.2417077540343302e-02  1.3062039214614182e-02  1.6988267014416755e-01  1.2754036476783137e-01  1.3154093822940627e-01  1.7217226882329750e-01  1.6306166054919249e-01  -1.9437792322481448e-01  1.7106589570508762e-01  1.7927314078459772e-01  -1.6189487536014003e-02  1.6422817496576189e-01  -8.9703700452070642e-02  -1.0882075177935875e-01  -8.1411480298195199e-02  1.5203615574046650e-01  8.5214405828492129e-02  1.2836735611017572e-01  1.1222642873479549e-02  -1.6265428271316676e-02  -3.7639722498434926e-02  1.5679067479288056e-01  -1.1917658314714562e-01  -1.0947462956155220e-01  -5.2137596753305079e-02  1.8670473051356123e-01  -1.2224314794885757e-01  -9.4246252175568479e-02  -6.1280585350182659e-02  7.7207297690557314e-02  1.3277995042074414e-01  3.4879027036113550e-02  1.6456355834661557e-01  -8.9554130907231674e-02  1.7021039515003938e-01  1.7356913848255481e-01  -5.0999548412939646e-02  1.0407646681080709e-01  -7.5384262186987600e-02  -7.5074605215012857e-02  8.1670602682269819e-02  8.2831884775380560e-02  1.6169342925177779e-01  1.5035785183723113e-01  </DataArray> 
</PointData> 
</Piece>
</UnstructuredGrid>
</VTKFile>