<?xml version="1.0"?>
<VTKFile type="UnstructuredGrid"  version="0.1"  >
<UnstructuredGrid>
<Piece  NumberOfPoints="406" NumberOfCells="722">
<Points>
<DataArray  type="Float64"  NumberOfComponents="3"  format="ascii">-6 -2 0  -6 2 0  6 2 0  6 -2 0  -2.8 0 0  -1.2 0 0  -5.500000000001853 -2 0  -5.000000000003705 -2 0  -4.500000000005556 -2 0  -4.000000000007409 -2 0  -3.50000000000926 -2 0  -3.000000000011112 -2 0  -2.500000000012963 -2 0  -2.000000000014814 -2 0  -1.500000000016665 -2 0  -1.000000000018516 -2 0  -0.5000000000203677 -2 0  -2.204547655537681e-11 -2 0  0.4999999999796305 -2 0  0.9999999999814779 -2 0  1.499999999983327 -2 0  1.999999999985175 -2 0  2.499999999987029 -2 0  2.999999999988882 -2 0  3.499999999990735 -2 0  3.999999999992589 -2 0  4.49999999999444 -2 0  4.999999999996293 -2 0  5.499999999998147 -2 0  6 -1.500000000001387 0  6 -1.000000000002774 0  6 -0.5000000000041616 0  6 -5.505595979116151e-12 0  6 0.4999999999958384 0  6 0.9999999999972258 0  6 1.499999999998613 0  5.500000000001853 2 0  5.000000000003705 2 0  4.500000000005556 2 0  4.000000000007409 2 0  3.50000000000926 2 0  3.000000000011112 2 0  2.500000000012963 2 0  2.000000000014814 2 0  1.500000000016665 2 0  1.000000000018516 2 0  0.5000000000203677 2 0  2.204547655537681e-11 2 0  -0.4999999999796305 2 0  -0.9999999999814779 2 0  -1.499999999983327 2 0  -1.999999999985175 2 0  -2.499999999987029 2 0  -2.999999999988882 2 0  -3.499999999990735 2 0  -3.999999999992589 2 0  -4.49999999999444 2 0  -4.999999999996293 2 0  -5.499999999998147 2 0  -6 1.500000000001387 0  -6 1.000000000002774 0  -6 0.5000000000041616 0  -6 5.505595979116151e-12 0  -6 -0.4999999999958384 0  -6 -0.9999999999972258 0  -6 -1.499999999998613 0  -2.776753453941174 -0.1914525314286965 0  -2.708364820523325 -0.3717785376335722 0  -2.598808598538216 -0.5304981265911284 0  -2.454451797386757 -0.65838709271366 0  -2.283683909636528 -0.748012994147384 0  -2.096429344207466 -0.7941670992780535 0  -1.903570655798842 -0.7941670992788195 0  -1.716316090368095 -0.7480129941491368 0  -1.545548202616307 -0.6583870927157747 0  -1.401191401463757 -0.530498126593356 0  -1.291635179477527 -0.371778537635196 0  -1.223246546059047 -0.1914525314295925 0  -1.223246546058803 0.1914525314286035 0  -1.291635179476594 0.3717785376334188 0  -1.401191401461634 0.5304981265909601 0  -1.545548202612898 0.6583870927134221 0  -1.716316090363093 0.7480129941472402 0  -1.903570655792394 0.7941670992780367 0  -2.096429344201276 0.7941670992788055 0  -2.283683909631911 0.7480129941491347 0  -2.454451797383697 0.6583870927157729 0  -2.598808598536385 0.530498126593196 0  -2.70836482052258 0.3717785376349917 0  -2.776753453940975 0.1914525314295042 0  0.4588466633941945 0.2704149791022056 0  -4.424312812173863 0.2760319703992994 0  -3.803977598762586 -0.6841584599595646 0  -0.1330968762779425 -0.6798763971615133 0  2.451109587541276 3.169800318630399e-13 0  -3.563610936250569 0.5929994091167295 0  4.204753319582647 0.2820669554523581 0  -0.4390897559348154 0.6178095532273566 0  -3.041446812595122 1.175550440315544 0  -0.9622132806516797 1.132103015222783 0  1.069493318942931 -0.773608156980569 0  -4.924330687080279 -0.7127064269610045 0  -3.024693497948964 -1.195179289656404 0  -0.9648749555625579 -1.256854520022574 0  -3.443624282349383 -0.2044158249759613 0  -0.5611500783757608 -0.1747080110423833 0  1.60270880116926 0.7487034276124258 0  3.488352576142236 -0.8228939860777884 0  4.816375011670135 -0.8163750116689444 0  3.243628045085357 0.8578172796997985 0  -4.228632884234073 1.228069101636678 0  -2.365220384435482 -1.356128547810356 0  -1.637465979486354 1.3571687267915 0  -1.642380978561139 -1.359365080147485 0  -2.362988915989869 1.356737096243695 0  -5.134120367293631 0.8356299802910161 0  2.077496878467794 -0.9514080034522553 0  4.960859291178299 0.9608592911785537 0  0.3293120056474302 1.148965409695154 0  -5.157560560414062 0.09447106214747865 0  -3.14779387667392 -0.6330563038825547 0  -3.148134455585257 0.4354299640428653 0  -0.8464439673630421 0.4159277415926296 0  -0.9918125625721008 -0.7191748422889824 0  -4.355349213295776 -1.234510499778242 0  1.582074659164868 -0.06850205959954866 0  2.400584045214166 1.204278622181321 0  5.102831660739063 0.03453404176596848 0  4.083259768981113 1.154272958349666 0  -3.992394834362243 -0.1621022234411988 0  0.4290302718942113 -1.225465289645401 0  -3.681487986394671 -1.310544246656267 0  -3.640289698916164 1.187023654838123 0  0.468851680921228 -0.447055967952278 0  3.315209904217932 0.05667935655546536 0  -2.541160649745046 -1.046980928586996 0  -1.45196684542695 1.044189935346116 0  -2.000844595891861 -1.207983108473125 0  -1.453092202970521 -1.061139264918894 0  -2.000050543938391 1.207806685704176 0  -2.548033154566413 1.04418993534851 0  4.13054585796652 -1.232871249381608 0  -0.3301617095463629 1.221692405319566 0  -0.2880491989587189 -1.359626628407983 0  -0.0758941643813178 0.132275811829787 0  2.826389221580753 -1.233168480096227 0  -2.922070412327736 0.7575752117792038 0  1.003070890178416 1.271347915034201 0  -5.319521816151902 -1.310543894393663 0  -1.070407062963812 0.7877698545098388 0  -4.562499863038985 -0.2302396981426722 0  -3.164226661545047 0.07179577787350272 0  -0.9091377812900333 0.132454654016971 0  4.116029045943655 -0.4851826871817362 0  5.316659189209927 -1.316659189208741 0  -0.9498828454673396 -0.4149758979014553 0  -4.037769805263969 0.6896174350675625 0  1.431664772855882 -1.327784137638992 0  -3.646693623568034 0.1600006358878044 0  -2.878371345483476 -0.7910345833001061 0  1.062603041385242 0.2894765870627741 0  -0.547955103783681 0.1635272504420374 0  -4.804809838419659 1.41016301576038 0  -3.042895319571192 -0.3694931303482478 0  -4.59252578392403 0.792267765362792 0  2.823271260730033 -0.5472430318427347 0  -4.28575390662405 -0.7521491832384866 0  -0.5524005545121191 -0.9037367558558163 0  1.815219025072439 1.388812135783969 0  -1.288398729718543 -0.8178399475601057 0  -5.424388493366639 1.35375165044146 0  -2.256991952837567 -1.049538527273222 0  -1.739586738723494 -1.052327527873255 0  -1.738827359988536 1.050180627239116 0  -2.257795730428802 1.049701225145305 0  -0.62222340523776 -0.5483611729237363 0  2.065188519029698 0.5424877383589943 0  0.1055865106318892 0.7347782870471022 0  1.013082573993895 -0.2061877611231605 0  -5.428323520618333 -0.4386412085227075 0  5.374041502384443 -0.5304401760993408 0  3.435185060219232 -1.377658617395091 0  -3.302377238490527 0.8841390072780534 0  -0.9902123298072768 -0.124175295282554 0  0.7186958547669859 0.8724503317343631 0  2.941237214953417 1.390391532351976 0  4.708037787864423 -1.340276032051348 0  5.395029680982659 1.395029680983341 0  3.591022587550188 1.348260650408605 0  2.759385971589342 0.4857447325740718 0  -0.6832705231418494 0.8879387563573758 0  5.437781298507145 0.5981501503262471 0  -2.698603003287285 1.617130043745112 0  -3.463358189947519 -1.013588318179017 0  1.710866040171871 -0.6978716337870808 0  3.642182982762737 0.4555704362064124 0  -2.699802128031161 -1.618310703146212 0  -1.3020054856637 1.619819977935582 0  -2.000000000004996 -1.566396763829867 0  -1.999999999994794 1.566396763830688 0  -1.247812462071684 -1.595232739507426 0  4.59429106759859 1.420052135572917 0  0.9448382581152466 -1.440259145469251 0  -0.116376100998861 -0.2606209011258676 0  -4.774521510507792 0.4245390872783272 0  -2.983910172370106 -0.1208000607277856 0  -3.353983741142061 1.576062863985777 0  -5.473352579109997 0.4917619255280954 0  -4.828650470275986 -1.493148538517745 0  4.639973657165532 -0.2833178611094909 0  -2.660279445404468 0.7699932347178977 0  -1.335045190775955 0.7744876666923373 0  -3.395669172689978 0.2584951122361346 0  2.279110606119369 -1.465899541383697 0  4.734317729212562 0.4520963557364723 0  -0.6334913028224612 1.584213953723378 0  2.121854101359879 -0.4289611127787379 0  -3.474459720833238 -0.4977581316675216 0  -1.066539898844178 0.3411379476537602 0  -3.361849707555382 -1.611428512420182 0  -4.099039818938317 0.3306400369415774 0  -2.935324777364672 0.354721898811665 0  -3.973578595052027 1.482940358734671 0  3.784450148635689 -0.0702780807301525 0  -1.191348122671212 -0.5614501189722798 0  -2.838672605956353 -0.5493179047027598 0  -1.184983441257359 0.5617520886612424 0  -2.811184099847449 0.5574240755049175 0  0.2702752249355158 -0.8003643570420809 0  -0.6945947797857237 -1.593893965175195 0  0.001175881878679056 1.504521009023778 0  0.6072931735145096 1.501814722697789 0  -3.991896293645949 -1.047264188412552 0  -3.734097395159253 -0.3261671578666079 0  -5.539652387691843 -0.8857154182585802 0  -4.395061924111849 1.563293728588296 0  0.2258327611651416 -0.08745142624872881 0  -3.774816634825771 0.8676973328379478 0  2.208484493569073 1.6256686312487 0  0.1309939514660535 -1.566169703482512 0  -5.551414360955331 0.9459842275970113 0  -4.04734138658365 -1.51163984963472 0  -4.947145019546805 -0.3299925153029702 0  4.320410447198621 0.6970857582435144 0  -4.707557346727139 -1.000565649857444 0  1.353711468973986 1.582551234446199 0  1.674156483558973 0.3266252271732694 0  -4.039105552973997 -0.4537604746027087 0  0.01051727619263377 -1.088858357362194 0  -0.2234942609176301 0.8619127912343982 0  -2.95903482691863 0.1219373374385197 0  -4.682467695920681 0.0804575682243254 0  5.535750224195656 -0.1525732643419722 0  -4.290083947414376 -0.0005258314026840717 0  1.136102562417988 0.7655312464039168 0  -2.816589394567214 0.9927597419785312 0  -2.645374456162409 -0.7645902451387543 0  4.18414576655837 1.624276131878667 0  0.7127337088822223 -0.9006358935856398 0  1.972418102153911 0.9727040774616764 0  -2.42199174813501 0.8591219219254587 0  -2.418604734200992 -0.8552987735117754 0  -5.573597213364169 -0.03612430678117123 0  2.024792870869397 0.05574071630590883 0  -1.578875191508968 0.861424470724936 0  -1.54706008231699 -0.8630049102346303 0  3.848662181064435 -1.569601980075533 0  -2.000000000003871 -0.9746445732264465 0  -1.99999999
[...]
<PointData  Scalars="f_24"> 
<DataArray  type="Float64"  Name="f_24"  format="ascii">9.4042900762535975e-01  9.4042900762535975e-01  0.0000000000000000e+00  0.0000000000000000e+00  4.2255732765063603e-01  6.5004408254093593e-01  8.8436499312646333e-01  8.2968391852789092e-01  7.7373646582906608e-01  7.1842521784944935e-01  6.6312031654666237e-01  6.1064651938811587e-01  5.6814293527377524e-01  5.7418101708003577e-01  6.1842486486465209e-01  6.5450530400516005e-01  6.5573054698417588e-01  6.3146298902443498e-01  5.9088626669211908e-01  5.4351670678876940e-01  4.9299794011095754e-01  4.4051114581190820e-01  3.8588989353301595e-01  3.3232895284520669e-01  2.7714034802245580e-01  2.2190117896885084e-01  1.6649496137815148e-01  1.1101205334786399e-01  5.6055991497659378e-02  0.0000000000000000e+00  0.0000000000000000e+00  0.0000000000000000e+00  0.0000000000000000e+00  0.0000000000000000e+00  0.0000000000000000e+00  0.0000000000000000e+00  5.6013924781900502e-02  1.1118055364297327e-01  1.6647687480976731e-01  2.2226906838905025e-01  2.7708440187011296e-01  3.3201032119261176e-01  3.8646108534181534e-01  4.4047034736853319e-01  4.9272398397043204e-01  5.4357083090562530e-01  5.9080795861415925e-01  6.3096224297979631e-01  6.5640846315989465e-01  6.5396399374243541e-01  6.1902899241740361e-01  5.7409989320788068e-01  5.6812253193221018e-01  6.1069055536720795e-01  6.6297779945357294e-01  7.1828269090287900e-01  7.7423437323832289e-01  8.2919775799421191e-01  8.8452411177488233e-01  9.4042900762535975e-01  9.4042900762535975e-01  9.4042900762535975e-01  9.4042900762535975e-01  9.4042900762535975e-01  9.4042900762535975e-01  9.4042900762535975e-01  4.2117834723813086e-01  4.1717801434546731e-01  4.3394563548417986e-01  4.7807923755289761e-01  5.3858853916452587e-01  6.0978215597822993e-01  6.7060106396604691e-01  7.0691610935502014e-01  7.1001078336023338e-01  6.9222412734666849e-01  6.6994966559219327e-01  6.5496566648326171e-01  6.5483621628692124e-01  6.6982698928836359e-01  6.9223668689787432e-01  7.1090003886932174e-01  7.0752277348412984e-01  6.7047065548042117e-01  6.0981613350780450e-01  5.3897357081643948e-01  4.7745195812937191e-01  4.3436079783272524e-01  4.1903204742543859e-01  4.1956619097399750e-01  5.7530715213233119e-01  7.5877442160490904e-01  6.8756630526338358e-01  6.1735607899561318e-01  3.8766913953912008e-01  6.5042607691089971e-01  1.9847620190121940e-01  6.3079307918855743e-01  6.2032251011480533e-01  6.4079581803917185e-01  5.2775773015727589e-01  8.1987451069461081e-01  6.1992164894480251e-01  6.3920042147504275e-01  6.1280628538704263e-01  6.3310073674530443e-01  4.7628082519409132e-01  2.7729206674454770e-01  1.3121518012967212e-01  3.0403193136706413e-01  7.4543260818474244e-01  5.7713376701269614e-01  5.9940264495135032e-01  5.9891880944622111e-01  5.7714489260224222e-01  8.4383542210204721e-01  4.2868765143182475e-01  1.1530014896685137e-01  5.9422458712789128e-01  8.4490850219047509e-01  5.8533971935219797e-01  5.6317047223514283e-01  6.4572869647365549e-01  6.5100092368241091e-01  7.5924897722100360e-01  4.7587943100628427e-01  3.9544613299956671e-01  9.9375596446480169e-02  2.1234099714297378e-01  7.0156014375281983e-01  5.8736430355642688e-01  6.8856118805761002e-01  6.8308428815952893e-01  5.7578458543812017e-01  2.9548507017406561e-01  5.6060682942361240e-01  6.3345479011816275e-01  5.7451575668897126e-01  6.3193531189646335e-01  5.7457889153287633e-01  5.6027256693210181e-01  2.0709223602946239e-01  6.3312982090236447e-01  6.3327598547838326e-01  6.0988858255404121e-01  3.4972143823652430e-01  5.5940046995102044e-01  5.3766915472374799e-01  8.6506912138118153e-01  6.5086190260345933e-01  7.7538489740890704e-01  5.4528213728722985e-01  6.4569860235217880e-01  2.0829742852732938e-01  7.5979666419205699e-02  6.4997800664630978e-01  7.1655922254276416e-01  4.9641877254883204e-01  6.4839569572017564e-01  5.5774700554632795e-01  5.2516268656783871e-01  6.3259747505115094e-01  8.0846577201652448e-01  5.2929132095510512e-01  7.8267454335317266e-01  3.4881728839730747e-01  7.4730071932777142e-01  6.3674454353662202e-01  4.5748174934385388e-01  6.6001772855109853e-01  8.7666778379051657e-01  5.5607252226222104e-01  6.1450317644507080e-01  6.1494029257134653e-01  5.5608805922988869e-01  6.3753432810599076e-01  4.2857658545470911e-01  6.0436822655352329e-01  5.2924598175821413e-01  8.7639525777737504e-01  6.9406324702890945e-02  2.8365644913628124e-01  6.3109319548721565e-01  6.4838191249419919e-01  5.5991750316089262e-01  3.3753440728956080e-01  1.4334552026325861e-01  6.7247420231976690e-02  2.6654436241380597e-01  3.5556458101156735e-01  6.4022766571323975e-01  6.2345396947108840e-02  6.0100476755454002e-01  6.5850389528431685e-01  4.6528732238170661e-01  2.6015590687645079e-01  6.0103537772512505e-01  6.2497854497450089e-01  5.8203949612767292e-01  5.8207134043985231e-01  6.2879980080900044e-01  1.5592248285204086e-01  5.4433240956264151e-01  6.1248963219793973e-01  8.0137243487002774e-01  4.9031064911201327e-01  6.5676625977638114e-01  8.8136718406049941e-01  8.1106483679710073e-01  1.5052551010413617e-01  5.1610199430789483e-01  6.6790721731596325e-01  6.0632702012262529e-01  4.0886717355224989e-01  1.4016776396704256e-01  6.4407887754554471e-01  4.2238776110365089e-01  6.3170619718929766e-01  6.5507895365686342e-01  6.5677298500279990e-01  7.1778338809236053e-01  4.9434957384448447e-01  7.1907986928512624e-01  2.4446391832220640e-01  6.6648730822808455e-01  5.0003591092435951e-01  6.6655987933973548e-01  4.9297153581641362e-01  5.9447648031691080e-01  6.4561866541482205e-01  6.1990495452588179e-01  5.7476116353104689e-01  7.1823222503431305e-01  6.6625347703110049e-01  8.8921996793680813e-01  7.6374014132416201e-01  5.9121493211023524e-01  6.8929319127052635e-01  4.1679410630241820e-01  6.1291195504925478e-01  8.9051871701771379e-01  7.2678722567832255e-01  8.2109577161784675e-01  1.8590179351616851e-01  7.9698186623795064e-01  5.0535633832711635e-01  4.6746641305927850e-01  7.1191581538946069e-01  6.1491467627721219e-01  6.2437653442362628e-01  4.8110632256713481e-01  7.8952079803913178e-01  5.1433010478930459e-02  7.4082773948339664e-01  5.2153938777200126e-01  5.7967319032794340e-01  5.1279871433265112e-01  2.0141808197522448e-01  5.6083403977086044e-01  4.3976510146921372e-01  5.2408297097866752e-01  5.2421558266322843e-01  8.9271532228229256e-01  4.3176467851812150e-01  6.6833750966799521e-01  6.6715286471156887e-01  2.3837471318558251e-01  5.9627101721395803e-01  5.9631897021610669e-01  5.9857075352998157e-01  2.5984883621171884e-01  6.4283279455189801e-01  5.5755390576733832e-01  4.3765069447589039e-02  4.6172007353632818e-02  3.4903548631519643e-01  6.2749661450880467e-01  6.4212353179532844e-01  3.8136523996729815e-01  1.8010538153800759e-01  1.9378064512239365e-01  4.6418998184405663e-01  5.9966080161131285e-01  5.8446232179037427e-01  3.4228154747841333e-01  5.9897116537606354e-01  5.8847966787198613e-01  2.3112166943227666e-01  3.0064667909537252e-01  1.1114950990384884e-01  6.2316030844503512e-01  6.1415988523338672e-01  6.4038879770077606e-01  6.2574378824011256e-01  3.5896403919853787e-01  6.1434048491927884e-01  5.7806583562953173e-01  6.7620668843157772e-01  8.9529450147925427e-01  3.1223762070456534e-01  6.4208391305582790e-01  8.0959409375751612e-01  6.5156858941557616e-01  6.3987987162934312e-01  7.6958922485496595e-01  3.2387612522612846e-01  6.4411316570548516e-01  5.1257583945816831e-01  5.8105189501853338e-01  5.9947305988594668e-01  5.9985829792720902e-01  5.8106499222706776e-01  4.9381770294021143e-01  6.5094987614557476e-01  3.0503434079935771e-01  6.4117609348511284e-01  4.3979136154361428e-02  8.4013441569194824e-01  5.3303677453834886e-01  6.9125786722437144e-01  5.6778280550554350e-01  5.0264587229403546e-01  1.5936452998291606e-01  6.0910661036420455e-01  5.4767972838235746e-01  8.4711093750584976e-01  7.8366003271329132e-01  8.5359323617305138e-01  6.0180663338784945e-01  5.6083524063587842e-01  5.9614119145002009e-01  2.5215249940564977e-01  6.3605483249695616e-01  4.9676821439972557e-01  7.5348811765617751e-01  6.2724888342021912e-01  6.5031690087221050e-01  4.6832632351461970e-02  1.0493973887982322e-01  6.5799008588208641e-01  6.3809778438371012e-01  1.0786499769566688e-01  3.1901173408548728e-01  8.4059588069776370e-01  3.7029487697776370e-01  5.5264701677458539e-01  6.5098546446989070e-01  7.1608299284543797e-01  9.0655940364560939e-01  6.4300636900994745e-01  7.4901453497580273e-01  9.1759223198066051e-02  1.5628859322510499e-01  4.6639644272513209e-01  6.3762062192051261e-01  5.8005864235460836e-01  5.4548467904355957e-01  9.0079340355580784e-01  2.4399345535816822e-01  1.9087351175941239e-01  6.8729889625617702e-01  5.8106751717249050e-01  8.3918371504454337e-01  3.7730122428874538e-02  6.4045590189268609e-01  3.7901860106960761e-01  3.9003618867243733e-01  6.2480396772474267e-01  5.0704813568610396e-01  5.4007080984241229e-01  5.2619796552490461e-01  6.1728658024654337e-01  9.1127772182647271e-01  6.5266202616004731e-01  6.2845515660730178e-01  6.8977275271224203e-01  7.4286822560894128e-01  4.5379751725983275e-01  2.4809606771658343e-01  6.3873958169609857e-01  3.2368361750861892e-02  9.1153294699026977e-01  8.5121706557507582e-01  4.6568891806520263e-01  6.4296053709572898e-01  6.5891983030226564e-01  8.0362939226536634e-01  6.0187586091484779e-01  6.0896860121900787e-01  6.8825159684050108e-01  7.7789004187388588e-01  2.2514254754851357e-01  3.9589551339619800e-01  1.0130750551026656e-01  6.8491635326046385e-01  6.2837022015582500e-01  6.2978835090545937e-01  6.2775922178907417e-01  8.1411160337230448e-01  3.0413452975685989e-01  5.6205050597495632e-01  5.6227436777016815e-01  6.5616657821379576e-01  6.5664971379543524e-01  4.9777714222171138e-01  4.5575726908476966e-01  </DataArray> 
</PointData> 
</Piece>
</UnstructuredGrid>
</VTKFile>