<?xml version="1.0"?>
<VTKFile type="UnstructuredGrid"  version="0.1"  >
<UnstructuredGrid>
<Piece  NumberOfPoints="622" NumberOfCells="1116">
<Points>
<DataArray  type="Float64"  NumberOfComponents="3"  format="ascii">-6 -2 0  -6 2 0  6 2 0  6 -2 0  -2.8 0 0  -1.2 0 0  -5.500000000001853 -2 0  -5.000000000003705 -2 0  -4.500000000005556 -2 0  -4.000000000007409 -2 0  -3.50000000000926 -2 0  -3.000000000011112 -2 0  -2.500000000012963 -2 0  -2.000000000014814 -2 0  -1.500000000016665 -2 0  -1.000000000018516 -2 0  -0.5000000000203677 -2 0  -2.204547655537681e-11 -2 0  0.4999999999796305 -2 0  0.9999999999814779 -2 0  1.499999999983327 -2 0  1.999999999985175 -2 0  2.499999999987029 -2 0  2.999999999988882 -2 0  3.499999999990735 -2 0  3.999999999992589 -2 0  4.49999999999444 -2 0  4.999999999996293 -2 0  5.499999999998147 -2 0  6 -1.500000000001387 0  6 -1.000000000002774 0  6 -0.5000000000041616 0  6 -5.505595979116151e-12 0  6 0.4999999999958384 0  6 0.9999999999972258 0  6 1.499999999998613 0  5.500000000001853 2 0  5.000000000003705 2 0  4.500000000005556 2 0  4.000000000007409 2 0  3.50000000000926 2 0  3.000000000011112 2 0  2.500000000012963 2 0  2.000000000014814 2 0  1.500000000016665 2 0  1.000000000018516 2 0  0.5000000000203677 2 0  2.204547655537681e-11 2 0  -0.4999999999796305 2 0  -0.9999999999814779 2 0  -1.499999999983327 2 0  -1.999999999985175 2 0  -2.499999999987029 2 0  -2.999999999988882 2 0  -3.499999999990735 2 0  -3.999999999992589 2 0  -4.49999999999444 2 0  -4.999999999996293 2 0  -5.499999999998147 2 0  -6 1.500000000001387 0  -6 1.000000000002774 0  -6 0.5000000000041616 0  -6 5.505595979116151e-12 0  -6 -0.4999999999958384 0  -6 -0.9999999999972258 0  -6 -1.499999999998613 0  -2.796147781337886 -0.07841371226233997 0  -2.784628224322852 -0.1560722576115546 0  -2.765552268586196 -0.2322277418021561 0  -2.739103626009626 -0.30614674589063 0  -2.705537011479457 -0.3771173894593519 0  -2.665175689843037 -0.4444561864141836 0  -2.618408362691456 -0.5075146273293722 0  -2.565685424950688 -0.5656854249477874 0  -2.507514627332613 -0.6184083626887972 0  -2.444456186417533 -0.6651756898407991 0  -2.377117389462776 -0.7055370114776264 0  -2.306146745894456 -0.7391036260080417 0  -2.232227741806235 -0.7655522685849585 0  -2.15607225761588 -0.784628224321992 0  -2.078413712266957 -0.7961477813374315 0  -2.000000000003407 -0.7999999999999998 0  -1.921586287739523 -0.7961477813380696 0  -1.843927742389945 -0.7846282243231506 0  -1.767772258198879 -0.7655522685865098 0  -1.693853254109962 -0.7391036260098718 0  -1.622882610540873 -0.7055370114795768 0  -1.555543813585629 -0.6651756898429115 0  -1.49248537267008 -0.6184083626910072 0  -1.434314575051535 -0.5656854249500112 0  -1.381591637310384 -0.5075146273316149 0  -1.334824310158267 -0.4444561864161359 0  -1.294462988521423 -0.3771173894609975 0  -1.260896373990956 -0.3061467458920351 0  -1.234447731414138 -0.2322277418032578 0  -1.215371775677287 -0.156072257612254 0  -1.203852218662147 -0.07841371226267954 0  -1.203852218662115 0.07841371226235888 0  -1.215371775677132 0.156072257611478 0  -1.234447731413795 0.232227741802127 0  -1.260896373990353 0.3061467458905811 0  -1.294462988520456 0.3771173894591898 0  -1.334824310156812 0.444456186413959 0  -1.381591637308413 0.5075146273292139 0  -1.434314575049147 0.5656854249476236 0  -1.492485372667197 0.6184083626886415 0  -1.555543813582104 0.6651756898405565 0  -1.62288261053673 0.7055370114773629 0  -1.693853254105125 0.7391036260078683 0  -1.767772258193396 0.7655522685848468 0  -1.84392774238373 0.7846282243219146 0  -1.921586287732977 0.7961477813374253 0  -1.999999999996558 0.8 0  -2.078413712260516 0.7961477813380661 0  -2.156072257610207 0.7846282243231205 0  -2.232227741801178 0.7655522685864928 0  -2.306146745890059 0.7391036260098632 0  -2.377117389459098 0.7055370114795929 0  -2.444456186414405 0.6651756898428894 0  -2.50751462732998 0.6184083626909587 0  -2.565685424948549 0.5656854249499272 0  -2.61840836268981 0.5075146273313792 0  -2.665175689841831 0.4444561864159886 0  -2.705537011478692 0.3771173894607835 0  -2.739103626009108 0.3061467458918818 0  -2.76555226858589 0.2322277418031643 0  -2.784628224322724 0.1560722576122001 0  -2.796147781337853 0.07841371226267957 0  0.6720367661319522 0.1312687487860887 0  -4.389489086394485 0.3544472233398538 0  -3.816221554046232 -0.6097988664512611 0  -3.552726516474419 0.9342959806851625 0  -0.2536610443052337 0.8162373554653355 0  -0.1843238977799138 -0.6649951410982842 0  -3.613359951620445 0.1086570650978273 0  -3.146954163409593 -1.074378179335012 0  -0.4255266515582625 0.07734891565364931 0  -0.9413731612925856 1.168014724254929 0  -2.947764053183577 1.200029094390044 0  -0.8319852757411681 -1.058626838707328 0  2.675418990747819 -1.137325591670363e-12 0  -2.602010642259726 -1.287560129290477 0  -2.334401622060699 1.335006108940604 0  -1.524718496628401 1.32890816230333 0  -1.369813829148039 -1.26145150481762 0  -3.294065651892671 -0.4630240940010318 0  -2.072749204569071 -1.388981302138359 0  -0.7546165313921411 0.5601792161340381 0  -3.224879719581335 0.4382689715877901 0  -0.7073137361349826 -0.4625305410752652 0  4.326242945813966 0.3262429458150917 0  -3.187880061217201 0.07437712177460168 0  -2.94792024259867 0.7030255657465158 0  -2.678809277907896 0.9152683582887104 0  -4.911626141576894 -0.5700186648601188 0  -2.980647654587299 -0.5685006168686053 0  -2.769438919323564 -0.8202775213660614 0  -1.936950121013948 1.220669938589229 0  -0.8971643766260747 0.2762459428874499 0  -0.8760878018253068 -0.06836412137772707 0  -1.086827485441145 0.6772548942594016 0  -1.31355927028917 0.8808768148414213 0  -1.034266382739347 -0.5912381576649568 0  -1.241594139118264 -0.836771920085274 0  1.667161185638911 -0.6367996576268693 0  1.778189842800902 0.7191719841256095 0  -3.065106827511819 -0.266795371500425 0  3.714311277362231 -0.7275465302492842 0  -1.728329421201519 -1.09954751473283 0  4.870629493137888 -0.7325040699186681 0  -3.024707894719303 0.2567561910603656 0  -4.375540207252226 1.228935704312058 0  -2.272077148001781 -1.086192861256262 0  3.351408248797803 0.9175227128129597 0  -5.141847419540732 0.8091901960109126 0  0.5769368286199241 1.111816231125821 0  0.7411482978492124 -1.079569101289617 0  -1.074013749991219 0.430231207546053 0  -1.04664573441257 -0.3358382377487088 0  -2.439195336951085 0.9224778883059374 0  -2.902607676587358 0.4360473765597399 0  -1.629450174302152 1.035617385691805 0  -2.146859933125513 1.032375363966426 0  2.587625196444542 -0.9999926061845814 0  -2.529286802957126 -0.8830616815739111 0  -1.493798157676768 -0.8794705728517196 0  -1.932158132383022 -1.026681566564148 0  -4.09956359341904 -0.1372485582942864 0  5.055802064425553 1.050933510837308 0  -4.413659685984891 -1.207626391697488 0  -4.961411026474009 0.1201902955685026 0  -3.771151641156835 -1.303594976371997 0  -3.001321503506133 -0.04919177107285733 0  -3.881733605683001 0.5124517634812003 0  -0.1971627317996802 -1.336445372382849 0  -2.742825060181767 0.6732573903735507 0  2.520439429199979 1.129372838786189 0  -1.026326428668429 0.1384273198437734 0  -2.779290004861729 -0.5844691722665721 0  -2.895095740820851 -0.4261289730972082 0  -1.275682076193407 0.6630703172777138 0  0.1045291701958869 0.3433373435296472 0  5.175560481258801 0.0608563229178163 0  -1.211574424201636 -0.5847362589868093 0  -1.85847006217035 1.007917631940711 0  4.152535916385823 1.131901130662082 0  -1.04878257200685 -0.1253529988863012 0  1.432836501626023 0.05634449574318775 0  3.560672936003603 0.01188897172456759 0  -3.351823698389408 -0.1821329582635926 0  -5.145153363200735 -1.259166339382508 0  0.03473693330309885 -0.1724947236036572 0  -4.377830921337186 -0.6172564090242229 0  -0.3943750728122595 1.410897156959435 0  -1.661073679471639 -0.9342065000197183 0  -1.49086536677686 0.8331714487926741 0  -2.584486130952032 0.7871482690034864 0  4.270535884593893 -1.259607924744415 0  -1.757417028085795 -1.505182186951191 0  -3.430586920998477 1.425579221231371 0  -2.917598827418652 -0.2298465409534677 0  -2.328978331116049 -0.9300959620317677 0  -2.148543000691344 -0.9751580214451921 0  1.002654111360038 -0.4521702885594788 0  -4.628651824080903 -0.1127998710567241 0  -2.948904386702482 0.1555943115410545 0  0.4165242577134774 -0.5629432649478633 0  -3.698137692471105 -0.3173027948676715 0  -3.491400684461791 -0.7926319721650269 0  -0.3844454817728994 0.4680628696134375 0  -3.207830713508533 0.9778749990559993 0  3.229909751065535 -1.326302454776001 0  5.330007715336748 -1.312905173261894 0  -2.649214054100534 -0.713314536278899 0  1.342022964818772 -1.328315248672686 0  -2.556460939068198 1.202372762828344 0  -0.3497819755044588 -0.3080427614060888 0  -4.928440909495523 1.387622767511967 0  1.309170811945155 1.337467055109531 0  -1.352031940181449 -0.7151198948590243 0  -0.6132855723904642 0.9519045895123004 0  4.266838388406324 -0.3707357390867402 0  -3.834389788310238 1.371594798941152 0  -1.187890214580146 0.4851427123079557 0  -1.109118888029193 0.3185947354467283 0  0.1837819401738013 1.234799661476361 0  1.108165254659559 0.6237223548284967 0  -0.5266600156584522 -0.8113991260886402 0  -4.643822083543982 0.7834094684931707 0  -1.146235204666366 -0.4027330721405781 0  2.049029845992713 -0.2664662499985428 0  2.002665761665898 -1.328912351029848 0  -1.678783505586872 0.8978832065736417 0  -2.049499525232052 0.9483890761590005 0  -2.229972236535132 0.9181006323151361 0  -3.033763529945482 -1.54240494280775 0  -3.562344364746847 0.5622550957224539 0  -5.524396842903405 -0.2709714867672603 0  -0.9710982764034376 -1.549038578476423 0  3.058819320130555 -0.5375106252795963 0  -4.170365230099585 0.7342553699229977 0  -1.045878746461381 -8.187420622554697e-05 0  -1.864822945411764 -0.9219031104673102 0  -0.6251005091687033 -0.2120650512195049 0  2.317562622406059 0.4886417799113238 0  -0.6674371191466613 0.1483993095055008 0  -2.705757882979874 1.609712312948224 0  
[...]
<PointData  Scalars="f_24"> 
<DataArray  type="Float64"  Name="f_24"  format="ascii">9.9999997352726366e-01  9.9999997352726366e-01  9.9999997352726366e-01  9.9999997352726366e-01  4.3927689778140733e-01  8.5060392739830604e-01  9.8400877762841044e-01  9.6838603960734737e-01  9.5257220378744889e-01  9.3811392864444476e-01  9.2372102412188795e-01  9.0397212380705982e-01  8.7300740578583014e-01  8.1351928046902411e-01  7.6954178316617161e-01  8.6611212226141254e-01  1.0203590820429658e+00  1.1173756337373233e+00  1.1580837454102177e+00  1.1605353699984071e+00  1.1492391148709649e+00  1.1334360497903651e+00  1.1169119529640337e+00  1.0996356815268464e+00  1.0837885919584511e+00  1.0660624913596513e+00  1.0504040409056958e+00  1.0326471960541745e+00  1.0171215027116665e+00  9.9999997352726366e-01  9.9999997352726366e-01  9.9999997352726366e-01  9.9999997352726366e-01  9.9999997352726366e-01  9.9999997352726366e-01  9.9999997352726366e-01  1.0168890405233699e+00  1.0328295270403032e+00  1.0504570858166757e+00  1.0658277261418352e+00  1.0834983284557722e+00  1.1006504218958255e+00  1.1162897664251745e+00  1.1334667820569484e+00  1.1495394661586824e+00  1.1606945666708843e+00  1.1589051110957314e+00  1.1199932317652563e+00  1.0244747456442873e+00  8.5617420422293322e-01  7.9447954730459891e-01  8.1645574040093416e-01  8.6933102479559599e-01  9.0241570755492717e-01  9.2254181461710860e-01  9.3681745791498439e-01  9.5235801943508602e-01  9.6788261480305104e-01  9.8369079994553943e-01  9.9999997352726366e-01  9.9999997352726366e-01  9.9999997352726366e-01  9.9999997352726366e-01  9.9999997352726366e-01  9.9999997352726366e-01  9.9999997352726366e-01  4.4199982959415535e-01  4.5089096659826100e-01  4.4734040205916814e-01  4.6376162619118594e-01  4.6152877850907725e-01  4.9929688973742020e-01  4.8838371142714732e-01  5.3803171570233899e-01  5.2413726550292050e-01  5.8050939271895918e-01  5.8899412924731720e-01  6.4938190974949639e-01  6.7516862630511720e-01  7.1561290844216807e-01  7.3332652585284741e-01  7.3869647536468297e-01  7.2268094320400966e-01  6.8446794917879594e-01  6.4072398436187628e-01  6.0402057198787107e-01  5.9011438497429891e-01  5.9559372648152731e-01  6.2107517654933020e-01  6.5466535607848153e-01  6.9349935541058882e-01  7.3150309849704609e-01  7.6613828966846964e-01  7.9618987347031100e-01  8.1923504711424167e-01  8.3640248957304630e-01  8.4738618446385527e-01  8.4725886592534549e-01  8.3675029315609495e-01  8.2004299423718718e-01  7.9611437575687705e-01  7.6670721312357160e-01  7.3175660363021666e-01  6.9346003728895977e-01  6.5468500337247815e-01  6.2014068576114290e-01  5.9528105094774486e-01  5.9016670657704218e-01  6.0605272526760479e-01  6.4308235101884614e-01  6.8907606654051812e-01  7.2651142173303829e-01  7.4421242538363608e-01  7.4149977076817286e-01  7.1258350808950199e-01  6.9134553137785437e-01  6.4773994842499028e-01  5.9213084526019377e-01  5.3917370805750453e-01  5.5677254086810335e-01  4.8917250956799296e-01  5.0607932935286692e-01  4.8651894085753972e-01  4.7122772577244099e-01  4.5464937107462156e-01  4.6354301613725069e-01  4.4456284634193177e-01  4.4400328372964504e-01  1.1528205051792280e+00  9.4247820025411189e-01  9.2053071598974812e-01  9.1866135794712023e-01  1.0234781697961288e+00  1.0387781535315843e+00  8.9455576844180018e-01  9.1239809229331581e-01  9.9449817847119881e-01  7.3578654751551253e-01  9.0613215011667769e-01  8.0007429017700615e-01  1.1101791742546101e+00  8.7660473590910337e-01  8.3157891533150174e-01  5.9244390350799025e-01  5.5879091384701074e-01  8.7123547295714443e-01  7.8468595452071033e-01  8.8185347869366770e-01  8.5536271773876771e-01  9.0471364506710605e-01  1.0556594423660308e+00  8.1229684094356436e-01  8.4604424416700919e-01  8.3117164188843629e-01  9.6291280896770270e-01  8.1637771290172645e-01  8.2587658670115416e-01  6.8473954020431249e-01  8.7052047952476097e-01  8.8991618740122003e-01  7.3335747383858341e-01  5.5873387268667818e-01  7.7585053180998420e-01  6.0675098048005771e-01  1.1426146888658570e+00  1.1390151873561161e+00  7.7767556865590670e-01  1.0759699085094112e+00  5.7769848388628053e-01  1.0375951105571291e+00  7.5629257636459490e-01  9.4752951215230852e-01  7.4989673103591026e-01  1.0880889724255680e+00  9.7114097115229159e-01  1.1509733686037085e+00  1.1553025500396912e+00  8.0106260369057847e-01  8.2678287139026851e-01  7.4022239584729133e-01  7.4082310158973042e-01  5.4626026351096546e-01  7.1136610138102485e-01  1.1133138587801024e+00  7.5915907688050455e-01  5.3803882839100303e-01  6.5420540555161333e-01  9.2829088188376707e-01  1.0314125532763876e+00  9.4917344353857169e-01  9.6384983193531182e-01  9.3197183772023606e-01  7.1261780588426771e-01  9.2164197166937911e-01  1.0547508928272802e+00  7.5855677072536476e-01  1.1156411997812476e+00  8.5801311378538592e-01  7.2880964979646834e-01  7.2787013149965574e-01  6.6876035342986384e-01  1.0950726852202954e+00  1.0274295571323102e+00  7.1704876195931710e-01  6.3533902374959861e-01  1.0613321338257919e+00  8.5575214898841867e-01  1.1492875418207884e+00  1.0810350335690899e+00  8.5929981407940870e-01  9.7232810015168480e-01  1.0849325191796360e+00  9.4386534642974806e-01  1.0104909092616503e+00  5.6641125330023312e-01  5.5419807941514865e-01  7.3454220980759866e-01  1.0575435271559588e+00  7.0868024106332228e-01  9.2280947941685676e-01  6.7238943736591339e-01  7.1516123110124663e-01  6.9828714475580167e-01  1.1575652457728245e+00  9.5142055011647686e-01  6.7980955636765539e-01  1.1324106353466399e+00  9.0575381719223058e-01  9.1155995066173323e-01  9.9516377964162350e-01  9.0860914142525928e-01  1.0921925159676702e+00  1.0223765179230011e+00  7.2681805674878264e-01  1.1518224046086980e+00  8.5978906240337294e-01  1.0075041585098647e+00  9.6527581152646624e-01  1.1532744860758521e+00  6.2449637214227482e-01  9.1210441179757495e-01  1.0576255584329215e+00  9.3292749695218824e-01  7.5606140150712720e-01  8.1755234542702426e-01  1.1163540086544843e+00  1.1553674399611733e+00  9.4651666139017332e-01  9.5403307726124031e-01  7.8944414118387907e-01  1.1303889605587691e+00  1.1326554722985938e+00  5.8305187426486904e-01  6.8956421614308538e-01  6.9149286739765548e-01  9.0939308120863138e-01  9.0430354260119095e-01  9.8387601736613772e-01  8.1226517062486703e-01  1.0976387851634830e+00  9.3691692648785641e-01  8.6169716526221529e-01  6.5270073133264783e-01  9.4359233056018588e-01  1.1219531187921248e+00  9.3492356210948557e-01  8.8714453943233318e-01  1.1347345150268391e+00  7.2208340572167073e-01  6.5749978087577965e-01  8.9551764822283031e-01  8.8860091503804473e-01  9.8572276176111617e-01  1.1030952699110133e+00  7.7106187866143161e-01  8.8763708271679032e-01  7.9418590535418754e-01  9.1934579136889105e-01  6.0480616215174243e-01  9.1346062742363121e-01  6.4605690250749848e-01  8.0295246740632242e-01  8.3374997488374336e-01  1.1066100186409353e+00  1.0218896509760622e+00  8.8321658411431270e-01  1.0973791190433844e+00  8.5138692446681408e-01  9.8276730782355337e-01  8.0565529751174814e-01  1.1415776925829972e+00  1.0783109804595934e+00  8.6531696168676997e-01  8.8812228858413889e-01  6.6853236566719743e-01  8.9717304733010628e-01  1.0205164999631096e+00  6.7233593986932083e-01  6.6971415669396328e-01  5.5352238625531991e-01  8.1137577223124069e-01  1.1030810765116055e+00  8.6380185052596703e-01  7.3873451652740429e-01  9.7831872413346255e-01  5.7900198759378130e-01  6.0545811477714850e-01  6.2376666296584560e-01  6.1116094331084314e-01  1.0189418878497629e+00  9.2891553094338575e-01  1.0702821230162438e+00  6.7981509286982722e-01  6.8850855988163273e-01  9.5651051342084181e-01  1.0447047098540134e+00  6.7144468943063329e-01  6.5509551392007814e-01  6.7075114758190424e-01  6.1199490299443071e-01  5.9870058307900997e-01  6.7270765346701455e-01  1.0753375204739140e+00  1.0399280649040401e+00  9.3665514328145172e-01  9.0161120490965385e-01  8.3825406409715564e-01  9.2258290753747363e-01  5.1493075235387897e-01  8.9026611209334805e-01  6.3564642201092902e-01  5.7970003378558788e-01  8.3279683362287815e-01  9.2187379893890764e-01  8.0042482237557422e-01  1.0399367213252271e+00  7.1388282048077112e-01  7.8487874296194760e-01  1.1603136724533927e+00  1.1076363400396252e+00  9.5973150315279965e-01  7.5154195972893534e-01  7.6436876175357138e-01  8.4637517474906143e-01  1.1523314029747858e+00  7.1003075776567792e-01  6.8642286218177750e-01  6.6610127603856473e-01  1.1280500949883370e+00  8.9192412091197804e-01  6.8496010973203658e-01  5.8842189874391937e-01  5.9922021670753522e-01  9.4263014187457284e-01  9.4247062118340785e-01  1.1550749215941662e+00  6.3232553602213037e-01  8.5022544874759076e-01  6.0771768900259082e-01  8.9967580296854854e-01  8.4547717736442041e-01  8.0861014918978202e-01  9.5909361550149752e-01  1.1603243033051718e+00  6.4027578217113734e-01  1.1383195091600773e+00  5.7656572385899607e-01  1.1359126077979251e+00  7.3182726842039658e-01  8.4573643029792100e-01  9.5382108042396396e-01  1.0419800509096782e+00  6.2371204896249688e-01  9.0852401575012531e-01  6.7301885721111498e-01  9.8542820463461633e-01  1.1128782110319244e+00  6.1010909840220318e-01  7.1305265902761328e-01  6.2486231274488535e-01  9.8726373519254840e-01  9.7397180425605367e-01  8.0588337680964262e-01  1.0312084000710624e+00  6.8386323583649067e-01  8.5079060538366780e-01  5.8313941350986542e-01  9.3490143856542529e-01  6.5871332621689926e-01  6.8620733673615231e-01  9.3097574597377564e-01  6.6565518798587808e-01  5.8315135404453511e-01  6.6007835170032170e-01  5.0154470354875424e-01  8.2328924685221661e-01  5.9856609246822279e-01  1.0409295104671077e+00  6.7297326372275612e-01  5.1846026121172262e-01  6.0653383507601344e-01  8.6871974324218904e-01  8.1444056673182363e-01  9.2655365767073061e-01  7.4422491632986854e-01  1.0661500942165600e+00  1.0473906426025856e+00  7.9960663113162500e-01  6.6149318797839374e-01  8.8281396266309864e-01  6.5212120450965394e-01  8.5964090147671157e-01  8.9014949292621748e-01  8.1171067277940212e-01  8.4260247037127378e-01  7.4013585675335547e-01  1.1211920873867760e+00  9.3098688356973247e-01  8.4320724433101124e-01  1.0532950562267385e+00  9.2962142953282101e-01  9.1657561055283487e-01  8.4156937258839670e-01  7.9431146239454598e-01  1.0573768387590243e+00  9.4099790403169259e-01  7.2130310311210555e-01  1.0139767384920817e+00  9.6570853416786762e-01  8.5226769304557304e-01  9.7576808160549333e-01  1.1578341787983564e+00  8.2293414740667459e-01  8.5245545871998840e-01  7.2643747024461369e-01  1.0586954936183102e+00  7.3725806183212705e-01  8.1458093731853776e-01  9.2146950811424688e-01  1.0124744161132828e+00  6.4916079406532445e-01  7.6603144953518454e-01  1.1282542050612232e+00  8.5995144221351372e-01  9.2976726717872538e-01  1.1047184883151613e+00  6.0206006160250736e-01  1.0147796929611113e+00  1.1503998886524283e+00  6.4293627606427395e-01  6.3376579226420016e-01  9.5414348481512024e-01  7.0553830162854636e-01  7.3090937818559365e-01  5.6707154160354412e-01  6.3455797142674197e-01  1.1434186650455382e+00  1.0966210908875196e+00  1.0847245966726866e+00  1.1029847686418701e+00  9.5852327142180782e-01  1.0866912310077639e+00  8.9958859647378631e-01  9.1013843839913122e-01  9.5473294068142589e-01  9.2018324914060701e-01  9.9265435373485233e-01  9.8103320267416472e-01  8.8447655573439710e-01  1.0914825725900843e+00  1.1490799335211979e+00  8.8745138933310519e-01  1.1565108967339064e+00  9.5328929311632216e-01  1.1474215395603906e+00  1.1249981146542356e+00  9.7742684381002753e-01  8.6198398382134833e-01  9.6947507754480178e-01  1.0404002731098905e+00  7.8950295738579268e-01  1.0994205053316373e+00  1.1174779291159784e+00  7.5009052398570075e-01  1.1530540620131742e+00  5.5579853929415635e-01  9.3354584312263100e-01  1.0365452075678316e+00  6.0975759244516259e-01  9.4373307112428928e-01  1.0133733978132118e+00  1.0584441158052533e+00  1.1225570656026762e+00  1.1426896305258070e+00  9.4918578201898696e-01  1.0317065198703841e+00  1.1452898700209833e+00  6.8200823298282753e-01  5.4386947818622344e-01  1.1086177272896625e+00  9.1814108200366462e-01  8.9546624755198756e-01  1.0695136560358092e+00  8.1916981240292908e-01  8.7686057096634185e-01  7.6144872201335922e-01  8.3843262195985391e-01  9.0589793798407237e-01  9.7092574878828497e-01  6.7414151929568789e-01  9.3457629465584524e-01  9.4590304469467368e-01  6.7859898792645246e-01  9.6000278347368828e-01  1.0436074523370862e+00  6.6790350505686669e-01  1.0715263937883843e+00  9.1892748506809940e-01  8.8757564557595547e-01  7.0131658288731480e-01  8.8849335605617774e-01  9.3784241408900948e-01  1.0436143762531513e+00  7.6921073270233731e-01  7.7679683403605448e-01  6.0779050733693019e-01  8.1050673287590624e-01  7.0817886575564215e-01  1.1336522091209298e+00  8.7449542835811311e-01  7.5081293170057861e-01  7.3283475924827335e-01  5.9602348909382041e-01  9.4539820371553729e-01  1.0759227987821351e+00  8.7363755969407753e-01  5.9603870825084482e-01  7.8275236888859312e-01  9.3961899593026388e-01  9.2717192080564570e-01  8.0932445455570079e-01  1.0118377683370259e+00  9.8875442724671958e-01  9.7331222972056441e-01  1.0918869260118702e+00  1.1554087141442391e+00  1.1415367200933821e+00  1.0261013354710249e+00  9.8864102104500984e-01  1.1022397239641428e+00  1.1434267850093853e+00  9.1532885802594066e-01  1.1551279482328207e+00  9.0290480242251181e-01  9.5456266419852354e-01  8.8572268596883519e-01  6.7600518332498771e-01  1.0920243348757408e+00  7.0949123892267452e-01  6.6764357262301999e-01  9.4044309056972197e-01  1.0291700285029608e+00  9.1317722492376951e-01  1.1572372984285924e+00  1.1521814029237714e+00  9.1884689697070543e-01  1.1568174910709310e+00  1.1139086801439444e+00  1.0725508483731911e+00  7.9821696990951385e-01  1.0856570661873874e+00  9.8593859050193711e-01  5.2271585204238891e-01  1.1341448987515339e+00  7.7150181804517837e-01  1.0609474306610152e+00  1.0097456100681430e+00  7.9169042833829328e-01  7.5727778371310261e-01  8.4078820732497705e-01  9.2084950670509957e-01  1.0560140868274559e+00  6.2067109665516751e-01  1.1504446245220079e+00  8.8134975948904937e-01  9.6207795733305812e-01  5.5474841119073548e-01  9.4690399923103863e-01  5.7229434450059613e-01  5.6246197035005385e-01  9.6304658585591696e-01  1.0915218946171874e+00  1.0781756856125455e+00  8.7027397682511332e-01  1.0104764818838250e+00  1.0653971375697802e+00  1.1420188729214029e+00  8.5940615489779659e-01  6.4730210085024187e-01  9.0870238242957391e-01  9.0323080442333170e-01  6.3204264658640374e-01  6.8454657971194321e-01  1.0531184776511873e+00  6.8847509267465368e-01  9.9085855056812877e-01  9.3977322879216529e-01  7.7477735815446458e-01  9.1420851943249715e-01  9.7036221472286432e-01  7.6971515769042931e-01  7.0261767199479119e-01  9.8949141332125601e-01  1.0534477778169016e+00  1.1213278211716773e+00  8.9395832139560882e-01  9.2464784440408854e-01  8.5270383818885254e-01  9.7437772207432072e-01  8.2154150267167625e-01  7.3398902306500913e-01  9.6764111055396207e-01  </DataArray> 
</PointData> 
</Piece>
</UnstructuredGrid>
</VTKFile>