<?xml version="1.0"?>
<VTKFile type="UnstructuredGrid"  version="0.1"  >
<UnstructuredGrid>
<Piece  NumberOfPoints="622" NumberOfCells="1116">
<Points>
<DataArray  type="Float64"  NumberOfComponents="3"  format="ascii">-6 -2 0  -6 2 0  6 2 0  6 -2 0  -2.8 0 0  -1.2 0 0  -5.500000000001853 -2 0  -5.000000000003705 -2 0  -4.500000000005556 -2 0  -4.000000000007409 -2 0  -3.50000000000926 -2 0  -3.000000000011112 -2 0  -2.500000000012963 -2 0  -2.000000000014814 -2 0  -1.500000000016665 -2 0  -1.000000000018516 -2 0  -0.5000000000203677 -2 0  -2.204547655537681e-11 -2 0  0.4999999999796305 -2 0  0.9999999999814779 -2 0  1.499999999983327 -2 0  1.999999999985175 -2 0  2.499999999987029 -2 0  2.999999999988882 -2 0  3.499999999990735 -2 0  3.999999999992589 -2 0  4.49999999999444 -2 0  4.999999999996293 -2 0  5.499999999998147 -2 0  6 -1.500000000001387 0  6 -1.000000000002774 0  6 -0.5000000000041616 0  6 -5.505595979116151e-12 0  6 0.4999999999958384 0  6 0.9999999999972258 0  6 1.499999999998613 0  5.500000000001853 2 0  5.000000000003705 2 0  4.500000000005556 2 0  4.000000000007409 2 0  3.50000000000926 2 0  3.000000000011112 2 0  2.500000000012963 2 0  2.000000000014814 2 0  1.500000000016665 2 0  1.000000000018516 2 0  0.5000000000203677 2 0  2.204547655537681e-11 2 0  -0.4999999999796305 2 0  -0.9999999999814779 2 0  -1.499999999983327 2 0  -1.999999999985175 2 0  -2.499999999987029 2 0  -2.999999999988882 2 0  -3.499999999990735 2 0  -3.999999999992589 2 0  -4.49999999999444 2 0  -4.999999999996293 2 0  -5.499999999998147 2 0  -6 1.500000000001387 0  -6 1.000000000002774 0  -6 0.5000000000041616 0  -6 5.505595979116151e-12 0  -6 -0.4999999999958384 0  -6 -0.9999999999972258 0  -6 -1.499999999998613 0  -2.796147781337886 -0.07841371226233997 0  -2.784628224322852 -0.1560722576115546 0  -2.765552268586196 -0.2322277418021561 0  -2.739103626009626 -0.30614674589063 0  -2.705537011479457 -0.3771173894593519 0  -2.665175689843037 -0.4444561864141836 0  -2.618408362691456 -0.5075146273293722 0  -2.565685424950688 -0.5656854249477874 0  -2.507514627332613 -0.6184083626887972 0  -2.444456186417533 -0.6651756898407991 0  -2.377117389462776 -0.7055370114776264 0  -2.306146745894456 -0.7391036260080417 0  -2.232227741806235 -0.7655522685849585 0  -2.15607225761588 -0.784628224321992 0  -2.078413712266957 -0.7961477813374315 0  -2.000000000003407 -0.7999999999999998 0  -1.921586287739523 -0.7961477813380696 0  -1.843927742389945 -0.7846282243231506 0  -1.767772258198879 -0.7655522685865098 0  -1.693853254109962 -0.7391036260098718 0  -1.622882610540873 -0.7055370114795768 0  -1.555543813585629 -0.6651756898429115 0  -1.49248537267008 -0.6184083626910072 0  -1.434314575051535 -0.5656854249500112 0  -1.381591637310384 -0.5075146273316149 0  -1.334824310158267 -0.4444561864161359 0  -1.294462988521423 -0.3771173894609975 0  -1.260896373990956 -0.3061467458920351 0  -1.234447731414138 -0.2322277418032578 0  -1.215371775677287 -0.156072257612254 0  -1.203852218662147 -0.07841371226267954 0  -1.203852218662115 0.07841371226235888 0  -1.215371775677132 0.156072257611478 0  -1.234447731413795 0.232227741802127 0  -1.260896373990353 0.3061467458905811 0  -1.294462988520456 0.3771173894591898 0  -1.334824310156812 0.444456186413959 0  -1.381591637308413 0.5075146273292139 0  -1.434314575049147 0.5656854249476236 0  -1.492485372667197 0.6184083626886415 0  -1.555543813582104 0.6651756898405565 0  -1.62288261053673 0.7055370114773629 0  -1.693853254105125 0.7391036260078683 0  -1.767772258193396 0.7655522685848468 0  -1.84392774238373 0.7846282243219146 0  -1.921586287732977 0.7961477813374253 0  -1.999999999996558 0.8 0  -2.078413712260516 0.7961477813380661 0  -2.156072257610207 0.7846282243231205 0  -2.232227741801178 0.7655522685864928 0  -2.306146745890059 0.7391036260098632 0  -2.377117389459098 0.7055370114795929 0  -2.444456186414405 0.6651756898428894 0  -2.50751462732998 0.6184083626909587 0  -2.565685424948549 0.5656854249499272 0  -2.61840836268981 0.5075146273313792 0  -2.665175689841831 0.4444561864159886 0  -2.705537011478692 0.3771173894607835 0  -2.739103626009108 0.3061467458918818 0  -2.76555226858589 0.2322277418031643 0  -2.784628224322724 0.1560722576122001 0  -2.796147781337853 0.07841371226267957 0  0.6720367661319522 0.1312687487860887 0  -4.389489086394485 0.3544472233398538 0  -3.816221554046232 -0.6097988664512611 0  -3.552726516474419 0.9342959806851625 0  -0.2536610443052337 0.8162373554653355 0  -0.1843238977799138 -0.6649951410982842 0  -3.613359951620445 0.1086570650978273 0  -3.146954163409593 -1.074378179335012 0  -0.4255266515582625 0.07734891565364931 0  -0.9413731612925856 1.168014724254929 0  -2.947764053183577 1.200029094390044 0  -0.8319852757411681 -1.058626838707328 0  2.675418990747819 -1.137325591670363e-12 0  -2.602010642259726 -1.287560129290477 0  -2.334401622060699 1.335006108940604 0  -1.524718496628401 1.32890816230333 0  -1.369813829148039 -1.26145150481762 0  -3.294065651892671 -0.4630240940010318 0  -2.072749204569071 -1.388981302138359 0  -0.7546165313921411 0.5601792161340381 0  -3.224879719581335 0.4382689715877901 0  -0.7073137361349826 -0.4625305410752652 0  4.326242945813966 0.3262429458150917 0  -3.187880061217201 0.07437712177460168 0  -2.94792024259867 0.7030255657465158 0  -2.678809277907896 0.9152683582887104 0  -4.911626141576894 -0.5700186648601188 0  -2.980647654587299 -0.5685006168686053 0  -2.769438919323564 -0.8202775213660614 0  -1.936950121013948 1.220669938589229 0  -0.8971643766260747 0.2762459428874499 0  -0.8760878018253068 -0.06836412137772707 0  -1.086827485441145 0.6772548942594016 0  -1.31355927028917 0.8808768148414213 0  -1.034266382739347 -0.5912381576649568 0  -1.241594139118264 -0.836771920085274 0  1.667161185638911 -0.6367996576268693 0  1.778189842800902 0.7191719841256095 0  -3.065106827511819 -0.266795371500425 0  3.714311277362231 -0.7275465302492842 0  -1.728329421201519 -1.09954751473283 0  4.870629493137888 -0.7325040699186681 0  -3.024707894719303 0.2567561910603656 0  -4.375540207252226 1.228935704312058 0  -2.272077148001781 -1.086192861256262 0  3.351408248797803 0.9175227128129597 0  -5.141847419540732 0.8091901960109126 0  0.5769368286199241 1.111816231125821 0  0.7411482978492124 -1.079569101289617 0  -1.074013749991219 0.430231207546053 0  -1.04664573441257 -0.3358382377487088 0  -2.439195336951085 0.9224778883059374 0  -2.902607676587358 0.4360473765597399 0  -1.629450174302152 1.035617385691805 0  -2.146859933125513 1.032375363966426 0  2.587625196444542 -0.9999926061845814 0  -2.529286802957126 -0.8830616815739111 0  -1.493798157676768 -0.8794705728517196 0  -1.932158132383022 -1.026681566564148 0  -4.09956359341904 -0.1372485582942864 0  5.055802064425553 1.050933510837308 0  -4.413659685984891 -1.207626391697488 0  -4.961411026474009 0.1201902955685026 0  -3.771151641156835 -1.303594976371997 0  -3.001321503506133 -0.04919177107285733 0  -3.881733605683001 0.5124517634812003 0  -0.1971627317996802 -1.336445372382849 0  -2.742825060181767 0.6732573903735507 0  2.520439429199979 1.129372838786189 0  -1.026326428668429 0.1384273198437734 0  -2.779290004861729 -0.5844691722665721 0  -2.895095740820851 -0.4261289730972082 0  -1.275682076193407 0.6630703172777138 0  0.1045291701958869 0.3433373435296472 0  5.175560481258801 0.0608563229178163 0  -1.211574424201636 -0.5847362589868093 0  -1.85847006217035 1.007917631940711 0  4.152535916385823 1.131901130662082 0  -1.04878257200685 -0.1253529988863012 0  1.432836501626023 0.05634449574318775 0  3.560672936003603 0.01188897172456759 0  -3.351823698389408 -0.1821329582635926 0  -5.145153363200735 -1.259166339382508 0  0.03473693330309885 -0.1724947236036572 0  -4.377830921337186 -0.6172564090242229 0  -0.3943750728122595 1.410897156959435 0  -1.661073679471639 -0.9342065000197183 0  -1.49086536677686 0.8331714487926741 0  -2.584486130952032 0.7871482690034864 0  4.270535884593893 -1.259607924744415 0  -1.757417028085795 -1.505182186951191 0  -3.430586920998477 1.425579221231371 0  -2.917598827418652 -0.2298465409534677 0  -2.328978331116049 -0.9300959620317677 0  -2.148543000691344 -0.9751580214451921 0  1.002654111360038 -0.4521702885594788 0  -4.628651824080903 -0.1127998710567241 0  -2.948904386702482 0.1555943115410545 0  0.4165242577134774 -0.5629432649478633 0  -3.698137692471105 -0.3173027948676715 0  -3.491400684461791 -0.7926319721650269 0  -0.3844454817728994 0.4680628696134375 0  -3.207830713508533 0.9778749990559993 0  3.229909751065535 -1.326302454776001 0  5.330007715336748 -1.312905173261894 0  -2.649214054100534 -0.713314536278899 0  1.342022964818772 -1.328315248672686 0  -2.556460939068198 1.202372762828344 0  -0.3497819755044588 -0.3080427614060888 0  -4.928440909495523 1.387622767511967 0  1.309170811945155 1.337467055109531 0  -1.352031940181449 -0.7151198948590243 0  -0.6132855723904642 0.9519045895123004 0  4.266838388406324 -0.3707357390867402 0  -3.834389788310238 1.371594798941152 0  -1.187890214580146 0.4851427123079557 0  -1.109118888029193 0.3185947354467283 0  0.1837819401738013 1.234799661476361 0  1.108165254659559 0.6237223548284967 0  -0.5266600156584522 -0.8113991260886402 0  -4.643822083543982 0.7834094684931707 0  -1.146235204666366 -0.4027330721405781 0  2.049029845992713 -0.2664662499985428 0  2.002665761665898 -1.328912351029848 0  -1.678783505586872 0.8978832065736417 0  -2.049499525232052 0.9483890761590005 0  -2.229972236535132 0.9181006323151361 0  -3.033763529945482 -1.54240494280775 0  -3.562344364746847 0.5622550957224539 0  -5.524396842903405 -0.2709714867672603 0  -0.9710982764034376 -1.549038578476423 0  3.058819320130555 -0.5375106252795963 0  -4.170365230099585 0.7342553699229977 0  -1.045878746461381 -8.187420622554697e-05 0  -1.864822945411764 -0.9219031104673102 0  -0.6251005091687033 -0.2120650512195049 0  2.317562622406059 0.4886417799113238 0  -0.6674371191466613 0.1483993095055008 0  -2.705757882979874 1.609712312948224 0  
[...]
<PointData  Scalars="f_24"> 
<DataArray  type="Float64"  Name="f_24"  format="ascii">9.9999997375809713e-01  9.9999997375809713e-01  9.9999997375809713e-01  9.9999997375809713e-01  4.3937736186043569e-01  8.5107389217726581e-01  9.8386908232587356e-01  9.6820193561937473e-01  9.5249614207007693e-01  9.3850081476009717e-01  9.2547283563217664e-01  9.0986506602460893e-01  8.8527391308325454e-01  8.3172874149799991e-01  7.8273495325132469e-01  8.6320521136621531e-01  1.0099233446784888e+00  1.1102017877405550e+00  1.1554780297854725e+00  1.1611662632253046e+00  1.1510612691392728e+00  1.1352651967210228e+00  1.1185055784771729e+00  1.1009392988956559e+00  1.0848651840474868e+00  1.0669000062820966e+00  1.0510313448971389e+00  1.0330440527101961e+00  1.0173251259308225e+00  9.9999997375809713e-01  9.9999997375809713e-01  9.9999997375809713e-01  9.9999997375809713e-01  9.9999997375809713e-01  9.9999997375809713e-01  9.9999997375809713e-01  1.0171118732672684e+00  1.0332358294601525e+00  1.0510796537691309e+00  1.0666472872710249e+00  1.0845856191892957e+00  1.1019574474475409e+00  1.1178147962783189e+00  1.1353256724312639e+00  1.1512660797096324e+00  1.1614901975012117e+00  1.1561144715659026e+00  1.1127278212612715e+00  1.0140096443148514e+00  8.5447791570070619e-01  8.0764085957903453e-01  8.3600196016432271e-01  8.8410977300580873e-01  9.0911169003113934e-01  9.2471503878296402e-01  9.3742005889168689e-01  9.5241103791945769e-01  9.6774162214651793e-01  9.8356037717124578e-01  9.9999997375809713e-01  9.9999997375809713e-01  9.9999997375809713e-01  9.9999997375809713e-01  9.9999997375809713e-01  9.9999997375809713e-01  9.9999997375809713e-01  4.4223499347631579e-01  4.5139491363750084e-01  4.4818152052428356e-01  4.6483186296546281e-01  4.6301052012220084e-01  5.0249806577933021e-01  4.9340931304441454e-01  5.4746500425110456e-01  5.3664572115598497e-01  5.9814483151553888e-01  6.1068885565053121e-01  6.7524424434254304e-01  7.0441795838535981e-01  7.4733888405011673e-01  7.6656545397340004e-01  7.7313813580930846e-01  7.5899393625111666e-01  7.2323116924647779e-01  6.8086100703145525e-01  6.4353220955139145e-01  6.2598356120286347e-01  6.2607593790469207e-01  6.4544831026334959e-01  6.7333854927907011e-01  7.0738917862893924e-01  7.4134716330421624e-01  7.7292065268180477e-01  8.0050513144440383e-01  8.2184121618644990e-01  8.3778462578020751e-01  8.4802507293686813e-01  8.4803417934555059e-01  8.3835969911499209e-01  8.2295283421200682e-01  8.0095604486783756e-01  7.7399458511265928e-01  7.4232805189669782e-01  7.0806579045050988e-01  6.7424248260535924e-01  6.4552084135931886e-01  6.2702626367567427e-01  6.2757496004480573e-01  6.4757282773433167e-01  6.8581277181144407e-01  7.3098795563991925e-01  7.6644514620959892e-01  7.8214589460751516e-01  7.7762057093949399e-01  7.4653097722669282e-01  7.2262716511391334e-01  6.7533759977716712e-01  6.1492043232439508e-01  5.5636013077382196e-01  5.7049345292978937e-01  4.9657347809530294e-01  5.1111942964699242e-01  4.8803602166199084e-01  4.7153753860650977e-01  4.5480549409735599e-01  4.6381468794420433e-01  4.4478614299606306e-01  4.4411955105590967e-01  1.1423199811417368e+00  9.4125361916295192e-01  9.1892045922430832e-01  9.1787858615396489e-01  1.0186799080964855e+00  1.0311416220226408e+00  8.9192911958323506e-01  9.1385514212424213e-01  9.8598238086096390e-01  7.2816597791365245e-01  9.1038130195187150e-01  7.9240526142503109e-01  1.1113356333226552e+00  8.8910411987026583e-01  8.5402235490873546e-01  6.1741386201218118e-01  5.7865121229241412e-01  8.6984086223730972e-01  8.0972334513922661e-01  8.8042993776980372e-01  8.5412634819267130e-01  9.0158021217252093e-01  1.0563303075777584e+00  8.0952235975964126e-01  8.5061068897923708e-01  8.4473415302214139e-01  9.6226538571721210e-01  8.1959377480868034e-01  8.3643447852901498e-01  7.1762190421511629e-01  8.6972761463722392e-01  8.8763686480425941e-01  7.3971624316241935e-01  5.8206771770363519e-01  7.7950286487204667e-01  6.2203502991821591e-01  1.1434366107349421e+00  1.1400803562613087e+00  7.7644115329242347e-01  1.0768822247052128e+00  6.1880968722188689e-01  1.0380602826757501e+00  7.5515038921885758e-01  9.4713982611029501e-01  7.7466229063728298e-01  1.0891524642788830e+00  9.7072688466722445e-01  1.1418862705117216e+00  1.1495126173160057e+00  8.0507789919997530e-01  8.2860205979426105e-01  7.6222461881057546e-01  7.4377252944396677e-01  5.9005878006343215e-01  7.4326803590489443e-01  1.1146914457421451e+00  7.7727972536923895e-01  5.7579410720154989e-01  6.8964318766292265e-01  9.2653613914631849e-01  1.0318046343986902e+00  9.4870360827582134e-01  9.6315122664443376e-01  9.3181613569835620e-01  7.1053988187479478e-01  9.1992905851244178e-01  1.0460255664396547e+00  7.6937080857295459e-01  1.1170188980831752e+00  8.5803502956300282e-01  7.3694979760213031e-01  7.3089620320500304e-01  6.8395268620248406e-01  1.0827906591672829e+00  1.0277623107721532e+00  7.2693339256315848e-01  6.7624469573235257e-01  1.0620862586602586e+00  8.5575856674252548e-01  1.1495585863571318e+00  1.0819863115099917e+00  8.5663885658243788e-01  9.7204483201818870e-01  1.0722281145704124e+00  9.4278910337628063e-01  1.0025424261837419e+00  6.0956219464217298e-01  5.9021679547100703e-01  7.5114568625641676e-01  1.0582542217181237e+00  7.3295308693053729e-01  9.2401163622031290e-01  6.7214413505705806e-01  7.3956485580072862e-01  7.2920062744242564e-01  1.1531731766271305e+00  9.5038896975086251e-01  6.7850431371610287e-01  1.1206686841835596e+00  9.0354216860416414e-01  9.1054164575701946e-01  9.8833151581750944e-01  9.0939878535710095e-01  1.0933584808285615e+00  1.0226468774988284e+00  7.3998522602190220e-01  1.1528827608131429e+00  8.7512261333967745e-01  9.9885365382981139e-01  9.6503469712562950e-01  1.1541282774397865e+00  6.4490506967647077e-01  9.0924429367182535e-01  1.0583212226349383e+00  9.3304948867990600e-01  7.6380138919478691e-01  8.2057978632141193e-01  1.1058494198291793e+00  1.1532248026934626e+00  9.4349041256779320e-01  9.5332740942419059e-01  7.9401332475428366e-01  1.1315816097999121e+00  1.1342705637356039e+00  6.2741708284036390e-01  7.2603772824059409e-01  7.2220370018634428e-01  9.1374182806498949e-01  9.0250010960716187e-01  9.8360127766553596e-01  8.0560574177966804e-01  1.0987483149004196e+00  9.3580638630370661e-01  8.6137602678815361e-01  6.9119115969847444e-01  9.3806878236097657e-01  1.1232540377486364e+00  9.2997011426533804e-01  8.9791409284769841e-01  1.1363935923890296e+00  7.2873372372652767e-01  6.5851843268245147e-01  8.9283039298705735e-01  8.8896388997898124e-01  9.8554738462998115e-01  1.0930325429117773e+00  7.7264299166129380e-01  8.8777936041938643e-01  8.1544638033186434e-01  9.1730479072436721e-01  6.2885187591266201e-01  9.1016700951634144e-01  6.5130456578499651e-01  8.0127366596397098e-01  8.3526760455784077e-01  1.0959989575546607e+00  1.0221504367435286e+00  8.8661436868783372e-01  1.0986308028447460e+00  8.4917827939448531e-01  9.8248467533215700e-01  8.0305584647099160e-01  1.1337879038680401e+00  1.0792829846079919e+00  8.6266310418226833e-01  8.9352455187749336e-01  6.7042508269045786e-01  9.0321897412831087e-01  1.0207684252488320e+00  6.9259886632221523e-01  6.8332986927329242e-01  5.6739431045221300e-01  8.1183277681624333e-01  1.1042511875227354e+00  8.7941925014692768e-01  7.3901845391047660e-01  9.7801954152378801e-01  6.1816863984589587e-01  6.0465640269710386e-01  6.2504096608640347e-01  6.1180701877179156e-01  1.0191757084499862e+00  9.2784884602288786e-01  1.0711311279969504e+00  7.0853047080697162e-01  7.2194979520342584e-01  9.5569252687941331e-01  1.0452564732554703e+00  6.9390878773454256e-01  6.6534930670159742e-01  6.8665155220131102e-01  6.1061815595407221e-01  6.2608094805249614e-01  6.8839578156188885e-01  1.0762900821511838e+00  1.0404205098504486e+00  9.3583830682699387e-01  8.9983198908924322e-01  8.3952590771390734e-01  9.2359953682685525e-01  5.5480707383862593e-01  8.8806515090488991e-01  6.7903808172883495e-01  6.2048861126365185e-01  8.3471425992868520e-01  9.1507660638493282e-01  8.2013448003397083e-01  1.0404196771860497e+00  7.2596510962785754e-01  7.9055647349328262e-01  1.1590530044214156e+00  1.1090388884122671e+00  9.5948473864007788e-01  7.5939363135742555e-01  7.9010956612049110e-01  8.4688695164415750e-01  1.1427290357443685e+00  7.3724789935745361e-01  7.2104277258425642e-01  6.9496446532420841e-01  1.1294213489421732e+00  8.8468858995915167e-01  7.2427912403155281e-01  5.8839524639207708e-01  6.0171114961588201e-01  9.4273345343084425e-01  9.4242203941203839e-01  1.1545981164594219e+00  6.7280176511054590e-01  8.5002107741241817e-01  6.1066244468114861e-01  8.9738408848958051e-01  8.4622303780102348e-01  8.1194638907130023e-01  9.5858563901728422e-01  1.1596986975734260e+00  6.5064087831915352e-01  1.1254456945055780e+00  5.7552871925013305e-01  1.1368856294809175e+00  7.4176127004066705e-01  8.4665315647837081e-01  9.5040907169017974e-01  1.0424890935199744e+00  6.3112713274975785e-01  9.1326763203558836e-01  6.8967799977818378e-01  9.8521397567403390e-01  1.1141264791302299e+00  6.1491373686031592e-01  7.2452813261587801e-01  6.3235786569259933e-01  9.8710446683818520e-01  9.6833064276680536e-01  8.3105105459565232e-01  1.0259488851130969e+00  7.1992072985999511e-01  8.6377664470975590e-01  6.1826711023907588e-01  9.3336727606348580e-01  6.7778026879300346e-01  7.1780325331659078e-01  9.2945597571682981e-01  6.9213926571094186e-01  6.1714742861826721e-01  6.8497202675310986e-01  5.3883898814079800e-01  8.2099107477529976e-01  6.3665437359564847e-01  1.0304377091991528e+00  7.1431304658315575e-01  5.4425822298706827e-01  6.4725613711662777e-01  8.8470110156301507e-01  8.3653059402890473e-01  9.2558541051170429e-01  7.4194624126229802e-01  1.0669393049038909e+00  1.0479625892562925e+00  7.9964364714409575e-01  6.9341780387737129e-01  8.8050106597550515e-01  6.6876134605726822e-01  8.5667948871900401e-01  8.9899592861300670e-01  8.1301919497061015e-01  8.5087737082405446e-01  7.4068387297666849e-01  1.1227684694168987e+00  9.2941958643097677e-01  8.4431625354387163e-01  1.0539397681506304e+00  9.3067544343941577e-01  9.1831375347889144e-01  8.3963195628930154e-01  7.9883400672533311e-01  1.0481292539416140e+00  9.3969653544539622e-01  7.1971943095469693e-01  1.0141413626228641e+00  9.6505644715810013e-01  8.5258341108002145e-01  9.7560814915990413e-01  1.1542641306809176e+00  8.2952127496701389e-01  8.5282488168365034e-01  7.3612435390806807e-01  1.0594287447962569e+00  7.6570596212135422e-01  8.3409386367754734e-01  9.2125729337798845e-01  1.0126271561256672e+00  6.6061615022711462e-01  7.7199156461081408e-01  1.1296924828121149e+00  8.6051878861483155e-01  9.3061388424620850e-01  1.0949804290304994e+00  6.3059809857640570e-01  1.0149574160055144e+00  1.1502387327478449e+00  6.5572373804796047e-01  6.5602391134247895e-01  9.5398528444960218e-01  7.1334887629645283e-01  7.4798669621620562e-01  5.6727158844878067e-01  6.5589704489903156e-01  1.1452240128219071e+00  1.0977207385257466e+00  1.0857315198226791e+00  1.1042319729489944e+00  9.5806416119540572e-01  1.0877020452870956e+00  8.9545595998567273e-01  9.0784460077543683e-01  9.5179718228603094e-01  9.2053898690209990e-01  9.9011125807841593e-01  9.8086707782079274e-01  8.8245545816164117e-01  1.0798910826071020e+00  1.1493901433040370e+00  8.8478416654202852e-01  1.1547785058450166e+00  9.5236687062619341e-01  1.1416222394477147e+00  1.1266919554184969e+00  9.7700826640626914e-01  8.6146650952571413e-01  9.6893921908138136e-01  1.0293790576602984e+00  8.0248689976446175e-01  1.1006164669559195e+00  1.1040904339119604e+00  7.5527123346115699e-01  1.1447645834593452e+00  5.5521421487384892e-01  9.2849035094966281e-01  1.0264397293963052e+00  6.5256943045895077e-01  9.3432130194873608e-01  1.0135359494635905e+00  1.0591756954704015e+00  1.1237889788524738e+00  1.1440983211804800e+00  9.4809804439444689e-01  1.0321004161246410e+00  1.1469544496726733e+00  7.0756571481876740e-01  5.8686205907601408e-01  1.1100469247521376e+00  9.2078281616827629e-01  8.9437436394999015e-01  1.0703694729447064e+00  8.3697086409783217e-01  8.8720797818894159e-01  7.7186139430423817e-01  8.3976648707215940e-01  9.0485645345084809e-01  9.6429462459705784e-01  7.0991768960467905e-01  9.3338959332824367e-01  9.4509788945748963e-01  7.1069048359056863e-01  9.5403565075588070e-01  1.0441335179611462e+00  6.8165818526779520e-01  1.0723767846818828e+00  9.1745803111279678e-01  8.8987404409693172e-01  7.3826553445579679e-01  8.8723615865472671e-01  9.3730239433772067e-01  1.0441441467127452e+00  7.7479339591424279e-01  7.9458751313015052e-01  6.4856655077998882e-01  8.1415788307008052e-01  7.3460171798676632e-01  1.1212766824007339e+00  8.7330936759599420e-01  7.5944394585380570e-01  7.3338947974058821e-01  6.2122906928036803e-01  9.4438428180023437e-01  1.0768523024546264e+00  8.8770585252104384e-01  6.4010433983608217e-01  7.8808051907203847e-01  9.3566538499549956e-01  9.2685417736693787e-01  8.1196200809132790e-01  1.0119811526146363e+00  9.8863670631204048e-01  9.7304598644229889e-01  1.0930770150038454e+00  1.1566284673284291e+00  1.1321606601276253e+00  1.0264141601719052e+00  9.8846715597406787e-01  1.0922716240168087e+00  1.1447861958198400e+00  9.1888219427716789e-01  1.1564290325962820e+00  9.0871988438093743e-01  9.5381014303654510e-01  8.8368504038767237e-01  7.1384418813743777e-01  1.0932090234482552e+00  7.3665651798616394e-01  6.6871395529861088e-01  9.3907096168496085e-01  1.0295270512885113e+00  9.1609938698048821e-01  1.1568402172816603e+00  1.1432949207678962e+00  9.1530641435189708e-01  1.1531850441340525e+00  1.1151764101890471e+00  1.0734166958285747e+00  8.1758208563607027e-01  1.0867121157755995e+00  9.7792376946560322e-01  5.5914100692993396e-01  1.1232848526467867e+00  7.8659817904954210e-01  1.0534472806522188e+00  1.0098629595407087e+00  7.9932713109607256e-01  7.5057169717558569e-01  8.4046037441723598e-01  9.1893875891275134e-01  1.0566968394327256e+00  6.3951357406390408e-01  1.1506743041727132e+00  8.8785723878920453e-01  9.6147545302291360e-01  5.5561232690577833e-01  9.4619646308162009e-01  5.9845184729747580e-01  5.7484407736370358e-01  9.6290544250550880e-01  1.0816171926051139e+00  1.0655495578220973e+00  8.6931032440637124e-01  1.0106107450164989e+00  1.0661937597894453e+00  1.1427391027463789e+00  8.6209014592788313e-01  6.5605233391874784e-01  9.0889291186025190e-01  9.0031452853902305e-01  6.3548702146176350e-01  7.1750314391789893e-01  1.0428600330527578e+00  6.8825460548438278e-01  9.9075803626639758e-01  9.3940287019474378e-01  7.7272161692685515e-01  9.1212765645443017e-01  9.7014666580363018e-01  7.6712359687977927e-01  7.0118005376995463e-01  9.8933172774675338e-01  1.0540912382519489e+00  1.1228734236338762e+00  9.0257463080868194e-01  9.2036331181144260e-01  8.5261919921142892e-01  9.7394280981373238e-01  8.1504754049734374e-01  7.5486023122854751e-01  9.6716371058236184e-01  </DataArray> 
</PointData> 
</Piece>
</UnstructuredGrid>
</VTKFile>