<?xml version="1.0"?>
<VTKFile type="UnstructuredGrid"  version="0.1"  >
<UnstructuredGrid>
<Piece  NumberOfPoints="406" NumberOfCells="722">
<Points>
<DataArray  type="Float64"  NumberOfComponents="3"  format="ascii">-6 -2 0  -6 2 0  6 2 0  6 -2 0  -2.8 0 0  -1.2 0 0  -5.500000000001853 -2 0  -5.000000000003705 -2 0  -4.500000000005556 -2 0  -4.000000000007409 -2 0  -3.50000000000926 -2 0  -3.000000000011112 -2 0  -2.500000000012963 -2 0  -2.000000000014814 -2 0  -1.500000000016665 -2 0  -1.000000000018516 -2 0  -0.5000000000203677 -2 0  -2.204547655537681e-11 -2 0  0.4999999999796305 -2 0  0.9999999999814779 -2 0  1.499999999983327 -2 0  1.999999999985175 -2 0  2.499999999987029 -2 0  2.999999999988882 -2 0  3.499999999990735 -2 0  3.999999999992589 -2 0  4.49999999999444 -2 0  4.999999999996293 -2 0  5.499999999998147 -2 0  6 -1.500000000001387 0  6 -1.000000000002774 0  6 -0.5000000000041616 0  6 -5.505595979116151e-12 0  6 0.4999999999958384 0  6 0.9999999999972258 0  6 1.499999999998613 0  5.500000000001853 2 0  5.000000000003705 2 0  4.500000000005556 2 0  4.000000000007409 2 0  3.50000000000926 2 0  3.000000000011112 2 0  2.500000000012963 2 0  2.000000000014814 2 0  1.500000000016665 2 0  1.000000000018516 2 0  0.5000000000203677 2 0  2.204547655537681e-11 2 0  -0.4999999999796305 2 0  -0.9999999999814779 2 0  -1.499999999983327 2 0  -1.999999999985175 2 0  -2.499999999987029 2 0  -2.999999999988882 2 0  -3.499999999990735 2 0  -3.999999999992589 2 0  -4.49999999999444 2 0  -4.999999999996293 2 0  -5.499999999998147 2 0  -6 1.500000000001387 0  -6 1.000000000002774 0  -6 0.5000000000041616 0  -6 5.505595979116151e-12 0  -6 -0.4999999999958384 0  -6 -0.9999999999972258 0  -6 -1.499999999998613 0  -2.776753453941174 -0.1914525314286965 0  -2.708364820523325 -0.3717785376335722 0  -2.598808598538216 -0.5304981265911284 0  -2.454451797386757 -0.65838709271366 0  -2.283683909636528 -0.748012994147384 0  -2.096429344207466 -0.7941670992780535 0  -1.903570655798842 -0.7941670992788195 0  -1.716316090368095 -0.7480129941491368 0  -1.545548202616307 -0.6583870927157747 0  -1.401191401463757 -0.530498126593356 0  -1.291635179477527 -0.371778537635196 0  -1.223246546059047 -0.1914525314295925 0  -1.223246546058803 0.1914525314286035 0  -1.291635179476594 0.3717785376334188 0  -1.401191401461634 0.5304981265909601 0  -1.545548202612898 0.6583870927134221 0  -1.716316090363093 0.7480129941472402 0  -1.903570655792394 0.7941670992780367 0  -2.096429344201276 0.7941670992788055 0  -2.283683909631911 0.7480129941491347 0  -2.454451797383697 0.6583870927157729 0  -2.598808598536385 0.530498126593196 0  -2.70836482052258 0.3717785376349917 0  -2.776753453940975 0.1914525314295042 0  0.4588466633941945 0.2704149791022056 0  -4.424312812173863 0.2760319703992994 0  -3.803977598762586 -0.6841584599595646 0  -0.1330968762779425 -0.6798763971615133 0  2.451109587541276 3.169800318630399e-13 0  -3.563610936250569 0.5929994091167295 0  4.204753319582647 0.2820669554523581 0  -0.4390897559348154 0.6178095532273566 0  -3.041446812595122 1.175550440315544 0  -0.9622132806516797 1.132103015222783 0  1.069493318942931 -0.773608156980569 0  -4.924330687080279 -0.7127064269610045 0  -3.024693497948964 -1.195179289656404 0  -0.9648749555625579 -1.256854520022574 0  -3.443624282349383 -0.2044158249759613 0  -0.5611500783757608 -0.1747080110423833 0  1.60270880116926 0.7487034276124258 0  3.488352576142236 -0.8228939860777884 0  4.816375011670135 -0.8163750116689444 0  3.243628045085357 0.8578172796997985 0  -4.228632884234073 1.228069101636678 0  -2.365220384435482 -1.356128547810356 0  -1.637465979486354 1.3571687267915 0  -1.642380978561139 -1.359365080147485 0  -2.362988915989869 1.356737096243695 0  -5.134120367293631 0.8356299802910161 0  2.077496878467794 -0.9514080034522553 0  4.960859291178299 0.9608592911785537 0  0.3293120056474302 1.148965409695154 0  -5.157560560414062 0.09447106214747865 0  -3.14779387667392 -0.6330563038825547 0  -3.148134455585257 0.4354299640428653 0  -0.8464439673630421 0.4159277415926296 0  -0.9918125625721008 -0.7191748422889824 0  -4.355349213295776 -1.234510499778242 0  1.582074659164868 -0.06850205959954866 0  2.400584045214166 1.204278622181321 0  5.102831660739063 0.03453404176596848 0  4.083259768981113 1.154272958349666 0  -3.992394834362243 -0.1621022234411988 0  0.4290302718942113 -1.225465289645401 0  -3.681487986394671 -1.310544246656267 0  -3.640289698916164 1.187023654838123 0  0.468851680921228 -0.447055967952278 0  3.315209904217932 0.05667935655546536 0  -2.541160649745046 -1.046980928586996 0  -1.45196684542695 1.044189935346116 0  -2.000844595891861 -1.207983108473125 0  -1.453092202970521 -1.061139264918894 0  -2.000050543938391 1.207806685704176 0  -2.548033154566413 1.04418993534851 0  4.13054585796652 -1.232871249381608 0  -0.3301617095463629 1.221692405319566 0  -0.2880491989587189 -1.359626628407983 0  -0.0758941643813178 0.132275811829787 0  2.826389221580753 -1.233168480096227 0  -2.922070412327736 0.7575752117792038 0  1.003070890178416 1.271347915034201 0  -5.319521816151902 -1.310543894393663 0  -1.070407062963812 0.7877698545098388 0  -4.562499863038985 -0.2302396981426722 0  -3.164226661545047 0.07179577787350272 0  -0.9091377812900333 0.132454654016971 0  4.116029045943655 -0.4851826871817362 0  5.316659189209927 -1.316659189208741 0  -0.9498828454673396 -0.4149758979014553 0  -4.037769805263969 0.6896174350675625 0  1.431664772855882 -1.327784137638992 0  -3.646693623568034 0.1600006358878044 0  -2.878371345483476 -0.7910345833001061 0  1.062603041385242 0.2894765870627741 0  -0.547955103783681 0.1635272504420374 0  -4.804809838419659 1.41016301576038 0  -3.042895319571192 -0.3694931303482478 0  -4.59252578392403 0.792267765362792 0  2.823271260730033 -0.5472430318427347 0  -4.28575390662405 -0.7521491832384866 0  -0.5524005545121191 -0.9037367558558163 0  1.815219025072439 1.388812135783969 0  -1.288398729718543 -0.8178399475601057 0  -5.424388493366639 1.35375165044146 0  -2.256991952837567 -1.049538527273222 0  -1.739586738723494 -1.052327527873255 0  -1.738827359988536 1.050180627239116 0  -2.257795730428802 1.049701225145305 0  -0.62222340523776 -0.5483611729237363 0  2.065188519029698 0.5424877383589943 0  0.1055865106318892 0.7347782870471022 0  1.013082573993895 -0.2061877611231605 0  -5.428323520618333 -0.4386412085227075 0  5.374041502384443 -0.5304401760993408 0  3.435185060219232 -1.377658617395091 0  -3.302377238490527 0.8841390072780534 0  -0.9902123298072768 -0.124175295282554 0  0.7186958547669859 0.8724503317343631 0  2.941237214953417 1.390391532351976 0  4.708037787864423 -1.340276032051348 0  5.395029680982659 1.395029680983341 0  3.591022587550188 1.348260650408605 0  2.759385971589342 0.4857447325740718 0  -0.6832705231418494 0.8879387563573758 0  5.437781298507145 0.5981501503262471 0  -2.698603003287285 1.617130043745112 0  -3.463358189947519 -1.013588318179017 0  1.710866040171871 -0.6978716337870808 0  3.642182982762737 0.4555704362064124 0  -2.699802128031161 -1.618310703146212 0  -1.3020054856637 1.619819977935582 0  -2.000000000004996 -1.566396763829867 0  -1.999999999994794 1.566396763830688 0  -1.247812462071684 -1.595232739507426 0  4.59429106759859 1.420052135572917 0  0.9448382581152466 -1.440259145469251 0  -0.116376100998861 -0.2606209011258676 0  -4.774521510507792 0.4245390872783272 0  -2.983910172370106 -0.1208000607277856 0  -3.353983741142061 1.576062863985777 0  -5.473352579109997 0.4917619255280954 0  -4.828650470275986 -1.493148538517745 0  4.639973657165532 -0.2833178611094909 0  -2.660279445404468 0.7699932347178977 0  -1.335045190775955 0.7744876666923373 0  -3.395669172689978 0.2584951122361346 0  2.279110606119369 -1.465899541383697 0  4.734317729212562 0.4520963557364723 0  -0.6334913028224612 1.584213953723378 0  2.121854101359879 -0.4289611127787379 0  -3.474459720833238 -0.4977581316675216 0  -1.066539898844178 0.3411379476537602 0  -3.361849707555382 -1.611428512420182 0  -4.099039818938317 0.3306400369415774 0  -2.935324777364672 0.354721898811665 0  -3.973578595052027 1.482940358734671 0  3.784450148635689 -0.0702780807301525 0  -1.191348122671212 -0.5614501189722798 0  -2.838672605956353 -0.5493179047027598 0  -1.184983441257359 0.5617520886612424 0  -2.811184099847449 0.5574240755049175 0  0.2702752249355158 -0.8003643570420809 0  -0.6945947797857237 -1.593893965175195 0  0.001175881878679056 1.504521009023778 0  0.6072931735145096 1.501814722697789 0  -3.991896293645949 -1.047264188412552 0  -3.734097395159253 -0.3261671578666079 0  -5.539652387691843 -0.8857154182585802 0  -4.395061924111849 1.563293728588296 0  0.2258327611651416 -0.08745142624872881 0  -3.774816634825771 0.8676973328379478 0  2.208484493569073 1.6256686312487 0  0.1309939514660535 -1.566169703482512 0  -5.551414360955331 0.9459842275970113 0  -4.04734138658365 -1.51163984963472 0  -4.947145019546805 -0.3299925153029702 0  4.320410447198621 0.6970857582435144 0  -4.707557346727139 -1.000565649857444 0  1.353711468973986 1.582551234446199 0  1.674156483558973 0.3266252271732694 0  -4.039105552973997 -0.4537604746027087 0  0.01051727619263377 -1.088858357362194 0  -0.2234942609176301 0.8619127912343982 0  -2.95903482691863 0.1219373374385197 0  -4.682467695920681 0.0804575682243254 0  5.535750224195656 -0.1525732643419722 0  -4.290083947414376 -0.0005258314026840717 0  1.136102562417988 0.7655312464039168 0  -2.816589394567214 0.9927597419785312 0  -2.645374456162409 -0.7645902451387543 0  4.18414576655837 1.624276131878667 0  0.7127337088822223 -0.9006358935856398 0  1.972418102153911 0.9727040774616764 0  -2.42199174813501 0.8591219219254587 0  -2.418604734200992 -0.8552987735117754 0  -5.573597213364169 -0.03612430678117123 0  2.024792870869397 0.05574071630590883 0  -1.578875191508968 0.861424470724936 0  -1.54706008231699 -0.8630049102346303 0  3.848662181064435 -1.569601980075533 0  -2.000000000003871 -0.9746445732264465 0  -1.99999999
[...]
<PointData  Scalars="f_24"> 
<DataArray  type="Float64"  Name="f_24"  format="ascii">-1.8860332878688368e-01  -1.8860332878688368e-01  0.0000000000000000e+00  0.0000000000000000e+00  -4.4487595726912355e-01  7.8242415914451038e-02  -2.0015362267303469e-01  -2.1152014032188335e-01  -2.2167955898981842e-01  -2.3055382654802167e-01  -2.3727863530561999e-01  -2.3441448324358199e-01  -2.1580736577725707e-01  -1.4889275205056240e-01  -4.9302724023397186e-02  3.6515002915117015e-02  8.4934441715130898e-02  1.0513862572552152e-01  1.0979819319433827e-01  1.0653794754076197e-01  9.9654922749302710e-02  9.0398818686944812e-02  8.0761392181448274e-02  6.9658278749411759e-02  5.8293423022161187e-02  4.7109361242903207e-02  3.5525752201368284e-02  2.3784126846410087e-02  1.1761506932149252e-02  0.0000000000000000e+00  0.0000000000000000e+00  0.0000000000000000e+00  0.0000000000000000e+00  0.0000000000000000e+00  0.0000000000000000e+00  0.0000000000000000e+00  1.1778460770397165e-02  2.3675231451932788e-02  3.5357997730596426e-02  4.6855292499037964e-02  5.8451342550387766e-02  6.9704655191996701e-02  8.0466242222348938e-02  9.0537072037357294e-02  9.9871908546924876e-02  1.0670785994128770e-01  1.0977738402225473e-01  1.0507215159102123e-01  8.5557397970331378e-02  3.5744720036489722e-02  -4.8566786613074939e-02  -1.4897724367650023e-01  -2.1584888621383277e-01  -2.3425653077667194e-01  -2.3742975415671605e-01  -2.3071704660746964e-01  -2.2215359809853263e-01  -2.1118088687693182e-01  -2.0019469604625392e-01  -1.8860332878688368e-01  -1.8860332878688368e-01  -1.8860332878688368e-01  -1.8860332878688368e-01  -1.8860332878688368e-01  -1.8860332878688368e-01  -1.8860332878688368e-01  -4.4403929684407989e-01  -4.3944864127861377e-01  -4.0571177433060956e-01  -3.3541278405761804e-01  -2.4095265002870761e-01  -1.3187075244038154e-01  -3.3381611573377108e-02  3.8478848129515103e-02  7.3407527275628423e-02  8.2797904485385571e-02  8.0980545876160243e-02  7.8831058634031961e-02  7.8838490854738152e-02  8.0931368314473784e-02  8.2476740953412009e-02  7.3945963312716939e-02  3.8958684215445023e-02  -3.3554016187757066e-02  -1.3186804057915152e-01  -2.4058544248225683e-01  -3.3592389333026701e-01  -4.0528240035333463e-01  -4.3765683535308419e-01  -4.4550954022863132e-01  9.5386643240114644e-02  -2.3387641821985081e-01  -2.5099756239956778e-01  8.7984116118246927e-02  7.7901972518848964e-02  -2.6859740625762935e-01  4.1508640287601616e-02  8.0428565472637478e-02  -2.4022125673814004e-01  4.0273434713461828e-02  9.8419228387029864e-02  -2.1534955939519984e-01  -2.3835962224783422e-01  3.5081053483319323e-02  -2.9937255786036804e-01  8.0831073618416419e-02  9.2876892482543494e-02  5.7775809011378743e-02  2.7720903742247185e-02  6.3128251149223297e-02  -2.2735129422093922e-01  -1.9498259851951497e-01  -7.4790899401318084e-02  -7.5815162243097325e-02  -1.9466845922964179e-01  -2.0957196389673752e-01  8.6212366527042450e-02  2.4358550591627295e-02  9.9983916681294180e-02  -2.1091524080245513e-01  -2.9775694818109172e-01  -3.2371171433810780e-01  7.4470123249106526e-02  6.1672973130336928e-02  -2.2476244768541237e-01  9.0996073190308349e-02  8.1000580735392930e-02  2.0915336042654623e-02  4.4634783085538018e-02  -2.5487434122002867e-01  1.0153701779981678e-01  -2.3372503839170014e-01  -2.3652070462963393e-01  9.6166348461982715e-02  6.0906318845504695e-02  -2.4108724115573182e-01  -1.0407539508283169e-02  -1.4449864891054706e-01  -1.2514004177185239e-02  -1.4435082265819413e-01  -2.4259870777624173e-01  4.3644171337395322e-02  8.2055379452975419e-02  8.4711603506649386e-02  8.8811396264297751e-02  7.2426552106926667e-02  -2.9921239064162319e-01  1.0183034731168562e-01  -2.0418105473938358e-01  5.2984236829398269e-02  -2.2910407775468372e-01  -3.4646156487375657e-01  7.7749163301234075e-02  4.3595630865349115e-02  1.6208311033447213e-02  7.3637202448864666e-02  -2.4207062406984109e-01  9.7656992020396183e-02  -2.7993687500386605e-01  -2.9529542349833215e-01  9.5813990890619261e-02  8.1016563065724537e-02  -2.1525626542538923e-01  -3.5060216503519798e-01  -2.2360148431657420e-01  7.1349514860342453e-02  -2.3241810702325377e-01  7.3203703223631816e-02  9.2068096357679874e-02  4.2447754450712895e-02  -2.0177313153930990e-01  -2.0289988758226801e-01  -6.5140526414318570e-02  -6.4590986055213212e-02  -2.0302389294878459e-01  7.6604894829050765e-02  8.5254526625116650e-02  9.3452153304393937e-02  9.5745024070649457e-02  -2.0286734366685155e-01  1.4661649394787309e-02  5.9452895532065939e-02  -2.6131589095537300e-01  7.7754134038833869e-02  1.0024996208571837e-01  7.0204732969337880e-02  3.0366901928147488e-02  1.4300802545584093e-02  5.5861071684257357e-02  7.2543142921484782e-02  6.7515806749093410e-02  1.3169306527754793e-02  -2.1199524560336350e-01  -2.4663774287553011e-01  9.1216467849061705e-02  5.4062536866962621e-02  -2.1206906586489935e-01  -1.8844664426601973e-02  -1.4104347462749039e-01  -1.4104617767864844e-01  -8.8726378586749307e-03  3.2979075734701636e-02  1.0309060479434023e-01  8.8055590678318418e-02  -2.2119969184294686e-01  -3.8837272312894278e-01  -2.3046172807032658e-01  -2.0180072604269861e-01  -2.1452721624299703e-01  3.1608408901509913e-02  -3.1309334549356937e-01  4.7589131749113701e-02  -3.0174714313862133e-01  8.3835009585518191e-02  2.9477753678481381e-02  6.3581743245725200e-02  8.4016855019745429e-02  -2.8079505398124166e-01  7.6172657915586417e-02  -2.3091489469170101e-01  -2.4727740053427330e-01  -3.7751449596925390e-01  -2.2916981448005216e-01  5.0816476546474296e-02  7.0147050255398413e-02  -3.5814933877444383e-01  7.0497062453738005e-02  -3.6245652552199703e-01  9.6655213419587313e-02  5.9423791953643425e-02  9.5693411860990577e-02  1.0398812912792080e-01  -2.3436651927469754e-01  -2.6856787266682491e-01  -1.9958325986612291e-01  -2.2292739769486342e-01  9.2938049413620133e-02  -2.4548119714369329e-01  8.5540774645447917e-02  9.9842850028967756e-02  -1.9928574821340830e-01  -2.2811015785853009e-01  -2.1644039937592038e-01  3.9008190985339364e-02  -2.1883067279158969e-01  9.9642125192110451e-02  9.0441757663717912e-02  -2.4772655466090610e-01  9.3483916304218886e-02  8.6122090939735163e-02  -3.9586408195260053e-01  -2.2531643843502253e-01  1.0839312043462647e-02  -2.4061095187514212e-01  9.7964525269535099e-02  -2.5981393717027945e-01  -3.1475795283270264e-01  4.2404404882609298e-02  1.0045125281310627e-01  8.8202834578384112e-02  -2.6845190191910767e-01  -2.6800698585087318e-01  -1.9924820693492101e-01  8.5053591385394284e-02  1.5431369523045108e-02  1.8484561792120276e-02  5.0245903927690350e-02  -1.2289323048241153e-01  -1.2288883569173659e-01  -2.2569563936451578e-01  5.4286027542833182e-02  2.4500509047873362e-02  9.5927247518553013e-02  9.2964513182376106e-03  9.7976049440143421e-03  7.1972040494873268e-02  -5.1735237100323985e-03  2.8749058798059564e-02  7.7921109294393776e-02  3.7889325216581955e-02  4.0912197317734704e-02  9.3636313747393354e-02  9.2752482666452668e-02  -3.1286777568027196e-01  6.9781040208711523e-02  -2.2530692090734061e-01  -2.9313410513425620e-01  4.8423778165440377e-02  6.2066022664799381e-02  2.3570501341698229e-02  8.4494090237135958e-02  8.8107023171982116e-02  7.8863958012076185e-02  -9.8432483083852884e-03  7.4679101321362434e-02  -2.6053808941132761e-01  1.0538206797519049e-01  -2.6200675050429068e-01  -1.9795975996753978e-01  6.4285522896939049e-02  7.7383139334216880e-02  -2.1617879958130887e-01  -2.3964444128691115e-01  6.6627809756894793e-02  -2.2195786670303067e-01  6.7019440500854607e-02  7.0391672384568893e-02  1.0074172532918146e-01  -1.8201265156955163e-01  -8.7454566108562767e-02  -8.6171874026921697e-02  -1.8197295298556473e-01  9.6675204974467591e-02  -2.3598283412904636e-01  6.3926630624749639e-02  6.0799170463910326e-02  9.3461596321385045e-03  -2.0986588116009519e-01  -3.5205855547632320e-01  -2.3161360868871853e-01  1.0231674762753244e-01  9.4811103210628328e-02  3.3562403083611907e-02  -2.9105208383339309e-01  9.7488747398029207e-02  -2.0759982023315576e-01  -2.2499174497013733e-01  -2.0633500695187132e-01  -3.0787897394170721e-01  -3.3453962389262892e-01  9.2457988066797211e-02  5.2482902471045020e-02  7.8037502420577651e-02  9.6155198038066353e-02  -2.3307696060290894e-01  8.2394727317517250e-02  7.8191819399381954e-02  9.8691592908494684e-03  2.2332268682589661e-02  7.7373054106213715e-02  8.6292867567469150e-02  2.2706064338050967e-02  6.6614089923410433e-02  -2.0930679073924952e-01  7.6787077156570710e-02  9.7317129330549965e-02  -2.7904411608600249e-01  -2.3446643348751722e-01  -1.9575320967900134e-01  5.8667584960830632e-02  -2.3016428788063220e-01  1.9450488723477415e-02  3.2780140851511916e-02  -4.0126278792593434e-01  9.0159212974241149e-02  9.7068444168173534e-02  1.0413615830515176e-01  -1.9684119465368916e-01  5.1401887111429165e-02  3.9912373341733545e-02  -2.3154203047617966e-01  -2.5284605435210411e-01  -2.1152082461676183e-01  8.0067123788776905e-03  7.8292291506200692e-02  7.6647274948273988e-02  7.9214669195900561e-02  8.3640140221889175e-02  9.4098999330369623e-02  -3.3160099891808104e-01  9.9829319279016906e-02  9.2924609902274913e-02  -1.9475422257915659e-01  6.9483557226059867e-02  -2.2611772395570356e-01  -2.6033845111822490e-01  -2.3854509387345668e-01  9.1091496715441492e-02  5.2035167218795725e-02  2.9679777512857476e-02  6.8875851043674876e-03  -1.9491515228441972e-01  -2.0825299665247846e-01  9.4310670523861162e-02  -2.6352028547313483e-01  -2.5524060934980902e-01  -2.1602195584362882e-01  1.0403637163836732e-01  -2.6062917371391175e-01  -2.4306578923149336e-01  -2.2175219145567809e-01  4.7089861543910129e-02  7.9576478617685770e-02  2.1332398459763233e-02  6.3943388739260212e-02  -2.2591677674359301e-01  8.0480690440043981e-02  8.4620117252777835e-02  -2.1671699673416572e-01  6.3389512829131051e-02  -1.9628548377820201e-01  -1.9596393755016470e-01  -2.8296381779707468e-02  -2.7014383612220236e-02  9.4218425889432342e-02  8.8840009841484061e-02  </DataArray> 
</PointData> 
</Piece>
</UnstructuredGrid>
</VTKFile>