<?xml version="1.0"?>
<VTKFile type="UnstructuredGrid"  version="0.1"  >
<UnstructuredGrid>
<Piece  NumberOfPoints="406" NumberOfCells="722">
<Points>
<DataArray  type="Float64"  NumberOfComponents="3"  format="ascii">-6 -2 0  -6 2 0  6 2 0  6 -2 0  -2.8 0 0  -1.2 0 0  -5.500000000001853 -2 0  -5.000000000003705 -2 0  -4.500000000005556 -2 0  -4.000000000007409 -2 0  -3.50000000000926 -2 0  -3.000000000011112 -2 0  -2.500000000012963 -2 0  -2.000000000014814 -2 0  -1.500000000016665 -2 0  -1.000000000018516 -2 0  -0.5000000000203677 -2 0  -2.204547655537681e-11 -2 0  0.4999999999796305 -2 0  0.9999999999814779 -2 0  1.499999999983327 -2 0  1.999999999985175 -2 0  2.499999999987029 -2 0  2.999999999988882 -2 0  3.499999999990735 -2 0  3.999999999992589 -2 0  4.49999999999444 -2 0  4.999999999996293 -2 0  5.499999999998147 -2 0  6 -1.500000000001387 0  6 -1.000000000002774 0  6 -0.5000000000041616 0  6 -5.505595979116151e-12 0  6 0.4999999999958384 0  6 0.9999999999972258 0  6 1.499999999998613 0  5.500000000001853 2 0  5.000000000003705 2 0  4.500000000005556 2 0  4.000000000007409 2 0  3.50000000000926 2 0  3.000000000011112 2 0  2.500000000012963 2 0  2.000000000014814 2 0  1.500000000016665 2 0  1.000000000018516 2 0  0.5000000000203677 2 0  2.204547655537681e-11 2 0  -0.4999999999796305 2 0  -0.9999999999814779 2 0  -1.499999999983327 2 0  -1.999999999985175 2 0  -2.499999999987029 2 0  -2.999999999988882 2 0  -3.499999999990735 2 0  -3.999999999992589 2 0  -4.49999999999444 2 0  -4.999999999996293 2 0  -5.499999999998147 2 0  -6 1.500000000001387 0  -6 1.000000000002774 0  -6 0.5000000000041616 0  -6 5.505595979116151e-12 0  -6 -0.4999999999958384 0  -6 -0.9999999999972258 0  -6 -1.499999999998613 0  -2.776753453941174 -0.1914525314286965 0  -2.708364820523325 -0.3717785376335722 0  -2.598808598538216 -0.5304981265911284 0  -2.454451797386757 -0.65838709271366 0  -2.283683909636528 -0.748012994147384 0  -2.096429344207466 -0.7941670992780535 0  -1.903570655798842 -0.7941670992788195 0  -1.716316090368095 -0.7480129941491368 0  -1.545548202616307 -0.6583870927157747 0  -1.401191401463757 -0.530498126593356 0  -1.291635179477527 -0.371778537635196 0  -1.223246546059047 -0.1914525314295925 0  -1.223246546058803 0.1914525314286035 0  -1.291635179476594 0.3717785376334188 0  -1.401191401461634 0.5304981265909601 0  -1.545548202612898 0.6583870927134221 0  -1.716316090363093 0.7480129941472402 0  -1.903570655792394 0.7941670992780367 0  -2.096429344201276 0.7941670992788055 0  -2.283683909631911 0.7480129941491347 0  -2.454451797383697 0.6583870927157729 0  -2.598808598536385 0.530498126593196 0  -2.70836482052258 0.3717785376349917 0  -2.776753453940975 0.1914525314295042 0  0.4588466633941945 0.2704149791022056 0  -4.424312812173863 0.2760319703992994 0  -3.803977598762586 -0.6841584599595646 0  -0.1330968762779425 -0.6798763971615133 0  2.451109587541276 3.169800318630399e-13 0  -3.563610936250569 0.5929994091167295 0  4.204753319582647 0.2820669554523581 0  -0.4390897559348154 0.6178095532273566 0  -3.041446812595122 1.175550440315544 0  -0.9622132806516797 1.132103015222783 0  1.069493318942931 -0.773608156980569 0  -4.924330687080279 -0.7127064269610045 0  -3.024693497948964 -1.195179289656404 0  -0.9648749555625579 -1.256854520022574 0  -3.443624282349383 -0.2044158249759613 0  -0.5611500783757608 -0.1747080110423833 0  1.60270880116926 0.7487034276124258 0  3.488352576142236 -0.8228939860777884 0  4.816375011670135 -0.8163750116689444 0  3.243628045085357 0.8578172796997985 0  -4.228632884234073 1.228069101636678 0  -2.365220384435482 -1.356128547810356 0  -1.637465979486354 1.3571687267915 0  -1.642380978561139 -1.359365080147485 0  -2.362988915989869 1.356737096243695 0  -5.134120367293631 0.8356299802910161 0  2.077496878467794 -0.9514080034522553 0  4.960859291178299 0.9608592911785537 0  0.3293120056474302 1.148965409695154 0  -5.157560560414062 0.09447106214747865 0  -3.14779387667392 -0.6330563038825547 0  -3.148134455585257 0.4354299640428653 0  -0.8464439673630421 0.4159277415926296 0  -0.9918125625721008 -0.7191748422889824 0  -4.355349213295776 -1.234510499778242 0  1.582074659164868 -0.06850205959954866 0  2.400584045214166 1.204278622181321 0  5.102831660739063 0.03453404176596848 0  4.083259768981113 1.154272958349666 0  -3.992394834362243 -0.1621022234411988 0  0.4290302718942113 -1.225465289645401 0  -3.681487986394671 -1.310544246656267 0  -3.640289698916164 1.187023654838123 0  0.468851680921228 -0.447055967952278 0  3.315209904217932 0.05667935655546536 0  -2.541160649745046 -1.046980928586996 0  -1.45196684542695 1.044189935346116 0  -2.000844595891861 -1.207983108473125 0  -1.453092202970521 -1.061139264918894 0  -2.000050543938391 1.207806685704176 0  -2.548033154566413 1.04418993534851 0  4.13054585796652 -1.232871249381608 0  -0.3301617095463629 1.221692405319566 0  -0.2880491989587189 -1.359626628407983 0  -0.0758941643813178 0.132275811829787 0  2.826389221580753 -1.233168480096227 0  -2.922070412327736 0.7575752117792038 0  1.003070890178416 1.271347915034201 0  -5.319521816151902 -1.310543894393663 0  -1.070407062963812 0.7877698545098388 0  -4.562499863038985 -0.2302396981426722 0  -3.164226661545047 0.07179577787350272 0  -0.9091377812900333 0.132454654016971 0  4.116029045943655 -0.4851826871817362 0  5.316659189209927 -1.316659189208741 0  -0.9498828454673396 -0.4149758979014553 0  -4.037769805263969 0.6896174350675625 0  1.431664772855882 -1.327784137638992 0  -3.646693623568034 0.1600006358878044 0  -2.878371345483476 -0.7910345833001061 0  1.062603041385242 0.2894765870627741 0  -0.547955103783681 0.1635272504420374 0  -4.804809838419659 1.41016301576038 0  -3.042895319571192 -0.3694931303482478 0  -4.59252578392403 0.792267765362792 0  2.823271260730033 -0.5472430318427347 0  -4.28575390662405 -0.7521491832384866 0  -0.5524005545121191 -0.9037367558558163 0  1.815219025072439 1.388812135783969 0  -1.288398729718543 -0.8178399475601057 0  -5.424388493366639 1.35375165044146 0  -2.256991952837567 -1.049538527273222 0  -1.739586738723494 -1.052327527873255 0  -1.738827359988536 1.050180627239116 0  -2.257795730428802 1.049701225145305 0  -0.62222340523776 -0.5483611729237363 0  2.065188519029698 0.5424877383589943 0  0.1055865106318892 0.7347782870471022 0  1.013082573993895 -0.2061877611231605 0  -5.428323520618333 -0.4386412085227075 0  5.374041502384443 -0.5304401760993408 0  3.435185060219232 -1.377658617395091 0  -3.302377238490527 0.8841390072780534 0  -0.9902123298072768 -0.124175295282554 0  0.7186958547669859 0.8724503317343631 0  2.941237214953417 1.390391532351976 0  4.708037787864423 -1.340276032051348 0  5.395029680982659 1.395029680983341 0  3.591022587550188 1.348260650408605 0  2.759385971589342 0.4857447325740718 0  -0.6832705231418494 0.8879387563573758 0  5.437781298507145 0.5981501503262471 0  -2.698603003287285 1.617130043745112 0  -3.463358189947519 -1.013588318179017 0  1.710866040171871 -0.6978716337870808 0  3.642182982762737 0.4555704362064124 0  -2.699802128031161 -1.618310703146212 0  -1.3020054856637 1.619819977935582 0  -2.000000000004996 -1.566396763829867 0  -1.999999999994794 1.566396763830688 0  -1.247812462071684 -1.595232739507426 0  4.59429106759859 1.420052135572917 0  0.9448382581152466 -1.440259145469251 0  -0.116376100998861 -0.2606209011258676 0  -4.774521510507792 0.4245390872783272 0  -2.983910172370106 -0.1208000607277856 0  -3.353983741142061 1.576062863985777 0  -5.473352579109997 0.4917619255280954 0  -4.828650470275986 -1.493148538517745 0  4.639973657165532 -0.2833178611094909 0  -2.660279445404468 0.7699932347178977 0  -1.335045190775955 0.7744876666923373 0  -3.395669172689978 0.2584951122361346 0  2.279110606119369 -1.465899541383697 0  4.734317729212562 0.4520963557364723 0  -0.6334913028224612 1.584213953723378 0  2.121854101359879 -0.4289611127787379 0  -3.474459720833238 -0.4977581316675216 0  -1.066539898844178 0.3411379476537602 0  -3.361849707555382 -1.611428512420182 0  -4.099039818938317 0.3306400369415774 0  -2.935324777364672 0.354721898811665 0  -3.973578595052027 1.482940358734671 0  3.784450148635689 -0.0702780807301525 0  -1.191348122671212 -0.5614501189722798 0  -2.838672605956353 -0.5493179047027598 0  -1.184983441257359 0.5617520886612424 0  -2.811184099847449 0.5574240755049175 0  0.2702752249355158 -0.8003643570420809 0  -0.6945947797857237 -1.593893965175195 0  0.001175881878679056 1.504521009023778 0  0.6072931735145096 1.501814722697789 0  -3.991896293645949 -1.047264188412552 0  -3.734097395159253 -0.3261671578666079 0  -5.539652387691843 -0.8857154182585802 0  -4.395061924111849 1.563293728588296 0  0.2258327611651416 -0.08745142624872881 0  -3.774816634825771 0.8676973328379478 0  2.208484493569073 1.6256686312487 0  0.1309939514660535 -1.566169703482512 0  -5.551414360955331 0.9459842275970113 0  -4.04734138658365 -1.51163984963472 0  -4.947145019546805 -0.3299925153029702 0  4.320410447198621 0.6970857582435144 0  -4.707557346727139 -1.000565649857444 0  1.353711468973986 1.582551234446199 0  1.674156483558973 0.3266252271732694 0  -4.039105552973997 -0.4537604746027087 0  0.01051727619263377 -1.088858357362194 0  -0.2234942609176301 0.8619127912343982 0  -2.95903482691863 0.1219373374385197 0  -4.682467695920681 0.0804575682243254 0  5.535750224195656 -0.1525732643419722 0  -4.290083947414376 -0.0005258314026840717 0  1.136102562417988 0.7655312464039168 0  -2.816589394567214 0.9927597419785312 0  -2.645374456162409 -0.7645902451387543 0  4.18414576655837 1.624276131878667 0  0.7127337088822223 -0.9006358935856398 0  1.972418102153911 0.9727040774616764 0  -2.42199174813501 0.8591219219254587 0  -2.418604734200992 -0.8552987735117754 0  -5.573597213364169 -0.03612430678117123 0  2.024792870869397 0.05574071630590883 0  -1.578875191508968 0.861424470724936 0  -1.54706008231699 -0.8630049102346303 0  3.848662181064435 -1.569601980075533 0  -2.000000000003871 -0.9746445732264465 0  -1.99999999
[...]
<PointData  Scalars="f_24"> 
<DataArray  type="Float64"  Name="f_24"  format="ascii">4.2617506749942452e-01  4.2617506749942452e-01  0.0000000000000000e+00  0.0000000000000000e+00  4.8207087896840410e-02  3.7902561229404869e-01  3.9149630785670869e-01  3.5750146125583770e-01  3.2352380894203070e-01  2.9043484871729819e-01  2.5819167920265468e-01  2.3154679046610419e-01  2.1665403217258550e-01  2.4710471296697228e-01  3.1132718735570514e-01  3.6549449062466371e-01  3.8603370039544926e-01  3.8128163141258942e-01  3.6157072687463054e-01  3.3485618778993737e-01  3.0492915926256714e-01  2.7297982748662081e-01  2.3987812238752457e-01  2.0654486047852433e-01  1.7225902396347970e-01  1.3815291911455732e-01  1.0373365102754309e-01  6.9185414318416405e-02  3.4785853302003435e-02  0.0000000000000000e+00  0.0000000000000000e+00  0.0000000000000000e+00  0.0000000000000000e+00  0.0000000000000000e+00  0.0000000000000000e+00  0.0000000000000000e+00  3.4774146193395909e-02  6.9207782910935725e-02  1.0359471046242219e-01  1.3818135009046037e-01  1.7233680905041412e-01  2.0639630410331500e-01  2.3997905099723024e-01  2.7303190772173308e-01  3.0497975772023261e-01  3.3497919693234390e-01  3.6151514119830019e-01  3.8107556813555565e-01  3.8660929783265130e-01  3.6489050603058254e-01  3.1194563485511539e-01  2.4703270119195600e-01  2.1662365665837280e-01  2.3163764897817421e-01  2.5804118367007944e-01  2.9024117976255781e-01  3.2350113738424602e-01  3.5748614985345689e-01  3.9154969133767498e-01  4.2617506749942452e-01  4.2617506749942452e-01  4.2617506749942452e-01  4.2617506749942452e-01  4.2617506749942452e-01  4.2617506749942452e-01  4.2617506749942452e-01  4.6529047200217111e-02  4.3500420488114845e-02  6.4519015686803682e-02  1.1747336607896575e-01  1.9120693614775799e-01  2.7701255160854976e-01  3.5151930074328747e-01  3.9995265147059228e-01  4.1407143578961642e-01  4.0612955477980062e-01  3.9186974131762553e-01  3.8211282357309528e-01  3.8206271885330190e-01  3.9176798422467041e-01  4.0606259033867620e-01  4.1474178831372460e-01  4.0049069285365585e-01  3.5136916301442911e-01  2.7702757011267998e-01  1.9155785310180717e-01  1.1694981419652757e-01  6.4866714653924157e-02  4.5224519339310203e-02  4.5008596699471298e-02  3.4674452210778783e-01  3.1032470146217223e-01  2.6515918392193472e-01  3.6577331183830486e-01  2.3956050435214554e-01  2.3802542368039795e-01  1.2330734240249182e-01  3.6980532838018582e-01  2.3388012216436646e-01  3.5987362574953990e-01  3.2294356237348887e-01  3.5066547457722164e-01  2.3447024737759678e-01  3.5679413753761297e-01  2.0542385322847842e-01  3.7124173653008674e-01  2.9315528317840178e-01  1.7220764665963159e-01  8.1639754017700308e-02  1.8872236247142246e-01  3.0593098563885024e-01  2.3069746028637800e-01  2.9227064467185887e-01  2.9159488053548122e-01  2.3083661062704691e-01  3.6586716561119698e-01  2.6495740903059506e-01  7.1719853503256784e-02  3.5903155004127429e-01  3.6587641363557910e-01  1.9125295821775587e-01  1.6894965555753030e-01  3.7582581419764238e-01  3.7421263631198398e-01  3.1439608734637492e-01  2.9209472925996433e-01  2.4503679307221946e-01  6.1792396281676772e-02  1.3199452432039371e-01  2.7106312007926803e-01  3.5608258948405641e-01  2.7293353983157304e-01  2.6878854321032769e-01  3.4736250707583888e-01  1.8322770426430426e-01  2.0271502092972363e-01  3.3774226369907906e-01  2.5150502350480669e-01  3.3600440593756470e-01  2.5159669459624995e-01  2.0186064393793329e-01  1.2879434048652191e-01  3.7210714330695083e-01  3.7342603934298746e-01  3.6214135881259363e-01  2.1701787612666215e-01  1.7681405352461815e-01  3.2976185282624670e-01  3.7946493591217112e-01  3.7098935567508123e-01  3.2118313763640760e-01  1.5058143337509725e-01  3.7685657393487415e-01  1.2942923143093571e-01  4.7353300773240063e-02  3.7789470622825483e-01  2.8435591835442942e-01  3.0594605731741487e-01  2.3235709831900073e-01  1.7759459850633397e-01  3.2037529415813271e-01  3.7103921865657907e-01  3.4463651745532803e-01  1.4007416396882924e-01  3.2736036140094338e-01  2.1608211227092730e-01  3.0480185997141152e-01  3.7020936188768783e-01  2.8281408064639757e-01  3.7286857464776563e-01  3.8666330835175045e-01  2.1745753149908173e-01  3.0647817399747085e-01  3.0693829089209734e-01  2.1740663471032423e-01  3.7199287292105099e-01  2.6448748575669845e-01  3.6133476141474347e-01  3.2249909879028726e-01  3.8604358618618256e-01  4.3181374234270181e-02  1.7629495092700986e-01  2.3068035246726534e-01  3.7827814246460678e-01  3.4086597181927786e-01  2.0957640120929480e-01  8.9203734041293198e-02  4.1865158532566615e-02  1.6563805242362731e-01  2.2018480690011455e-01  3.6990530912804703e-01  3.8779453634538316e-02  2.3566533324315433e-01  2.5143442837384272e-01  2.8658045181559511e-01  1.6149448564404562e-01  2.3565476732740823e-01  3.2741007527369009e-01  2.5526826741754527e-01  2.5527914479306352e-01  3.3350214574872011e-01  9.6990520953028250e-02  3.3384159487384213e-01  3.6317527740345007e-01  3.3834723319291132e-01  1.0498824732766977e-01  2.5745563605929228e-01  3.8914063338606675e-01  3.4634029573943681e-01  9.3570441357380699e-02  1.4813106217209213e-01  3.7947953081783320e-01  2.0096948238832349e-01  2.5338570222763818e-01  8.7145458403449602e-02  3.7079557572935429e-01  2.6065663934442218e-01  2.2303776883881721e-01  3.8162194746224426e-01  2.5730574596604350e-01  2.8286802310510095e-01  1.1061346798605499e-01  2.9114969932121693e-01  1.5176110223222475e-01  3.8636175202476114e-01  1.2083247140804108e-01  3.8654485678834766e-01  1.1519233257869800e-01  3.5754468287721319e-01  3.6989730292546907e-01  3.7104214653810713e-01  3.5048576306637341e-01  2.8846796562352173e-01  2.4654706180983477e-01  3.9425745797450440e-01  3.1758101793283500e-01  3.5405954223105712e-01  2.6835690069653145e-01  2.5834318326736261e-01  3.6908490118832615e-01  3.9507729382128415e-01  2.9573436862194502e-01  3.5086230681881059e-01  1.1553746088748507e-01  3.3700634592727335e-01  3.1159278168530608e-01  2.8739775561135494e-01  2.7954483497265253e-01  3.6714412981651334e-01  3.6878421896266061e-01  9.7206821331743465e-02  3.3030614189182861e-01  3.1989327392694375e-02  2.9794521304786387e-01  3.1945962360628122e-01  2.0424253791536828e-01  1.4566958262136934e-01  1.2518625451065235e-01  3.4144406643329106e-01  2.7172222135003871e-01  1.7198670995740964e-01  1.7225333315244412e-01  3.9626767717276073e-01  2.6608602283240546e-01  3.6843182203377067e-01  3.6882549334366438e-01  1.4826351878884872e-01  2.7356453890029936e-01  2.7358647582081719e-01  2.2868012067312521e-01  1.6141700343465054e-01  3.5579809441286475e-01  3.3757635387753171e-01  2.7237216668692520e-02  2.8744214606852659e-02  2.1646063039136404e-01  3.3497548314065967e-01  3.5676906107436751e-01  2.3622804555557680e-01  1.1198692905959172e-01  1.2053253461706305e-01  2.8704029179939600e-01  3.5846263012583385e-01  1.8476534461761171e-01  2.1193003952771525e-01  2.2905314376251248e-01  1.9480542329316711e-01  1.4363372832750887e-01  1.8647153601718663e-01  6.9164454345322687e-02  3.6737373992346328e-01  3.6408960162746895e-01  3.7441829850046171e-01  3.3228003642867593e-01  2.2291501171945421e-01  2.2209729350246804e-01  3.5281768925976265e-01  2.5454651836095260e-01  3.9820798651427303e-01  1.9358903827575161e-01  3.7482055706935802e-01  3.4483153791230226e-01  2.5068565427718992e-01  3.6945092553491865e-01  3.2112652248822138e-01  2.0095385454491213e-01  3.7333837741644255e-01  3.1588920128491599e-01  2.3754621241291929e-01  2.8603451601107499e-01  2.8677774062404982e-01  2.3756622744175518e-01  3.0415499589985689e-01  2.5192738514417068e-01  1.8957435103014023e-01  3.6785882773979051e-01  2.7367590644762178e-02  3.6376847624464020e-01  1.4169736192822080e-01  2.7543112699360434e-01  3.4602339671829568e-01  3.0799361552401683e-01  9.9077467663890001e-02  2.0673716287546429e-01  3.3308053255734593e-01  3.6847590294690952e-01  3.2731270942598223e-01  3.7245703002717423e-01  1.9613682719543901e-01  1.6357934445244743e-01  3.5645736134012074e-01  1.5656341045966890e-01  3.7175632955631299e-01  3.0547953712549059e-01  3.0782853601868615e-01  3.6869060748895632e-01  3.7939604685041567e-01  2.9125728791900118e-02  6.5353551763346590e-02  3.8365856968578810e-01  3.7695019489020787e-01  6.7072390069699853e-02  1.9815158586951806e-01  3.6425609099130829e-01  2.2981380792206990e-01  3.3564097636660367e-01  2.3410782814168948e-01  2.8726368140618935e-01  4.0511467398377471e-01  3.6818507535723111e-01  3.0664653057883412e-01  5.7116526473071888e-02  9.7134749683213867e-02  8.6291166994831456e-02  3.7831427425778064e-01  3.5006714339029460e-01  3.3493580031119297e-01  4.0161156649012120e-01  1.5172308408208585e-01  1.1858406660184649e-01  2.7331852221405240e-01  2.0797553237714975e-01  3.6256702260547169e-01  2.3452645655508808e-02  3.7426922991935002e-01  2.3442267019587551e-01  2.4139368504791550e-01  3.6789337630942076e-01  3.0999575177502298e-01  1.5322690236460509e-01  3.2275749809759885e-01  3.6819704634836864e-01  4.0805189205278980e-01  3.7803437715642935e-01  2.4420660568348324e-01  2.6251424635889054e-01  2.9989244171359064e-01  2.8042180070963507e-01  1.5420019900094931e-01  3.5425741321552534e-01  2.0152784932225380e-02  4.0812000562632661e-01  3.7035728139956631e-01  2.8814740236694858e-01  2.3611928884397737e-01  2.4806633988217372e-01  3.4176777517580070e-01  3.6501709248147424e-01  2.1921626926523327e-01  2.6881303244299298e-01  3.2558435753807152e-01  1.3987655213265585e-01  2.4465932514738423e-01  6.2992424885682324e-02  3.9542606273896391e-01  2.4426397717923709e-01  3.6932632601397336e-01  3.7004827993913225e-01  3.4701656341821707e-01  1.8887606097827903e-01  2.2374303966691683e-01  2.2400498398888691e-01  3.4511399706335932e-01  3.4589114598993814e-01  3.0515096202106945e-01  2.8047275723722664e-01  </DataArray> 
</PointData> 
</Piece>
</UnstructuredGrid>
</VTKFile>