<?xml version="1.0"?>
<VTKFile type="UnstructuredGrid"  version="0.1"  >
<UnstructuredGrid>
<Piece  NumberOfPoints="406" NumberOfCells="722">
<Points>
<DataArray  type="Float64"  NumberOfComponents="3"  format="ascii">-6 -2 0  -6 2 0  6 2 0  6 -2 0  -2.8 0 0  -1.2 0 0  -5.500000000001853 -2 0  -5.000000000003705 -2 0  -4.500000000005556 -2 0  -4.000000000007409 -2 0  -3.50000000000926 -2 0  -3.000000000011112 -2 0  -2.500000000012963 -2 0  -2.000000000014814 -2 0  -1.500000000016665 -2 0  -1.000000000018516 -2 0  -0.5000000000203677 -2 0  -2.204547655537681e-11 -2 0  0.4999999999796305 -2 0  0.9999999999814779 -2 0  1.499999999983327 -2 0  1.999999999985175 -2 0  2.499999999987029 -2 0  2.999999999988882 -2 0  3.499999999990735 -2 0  3.999999999992589 -2 0  4.49999999999444 -2 0  4.999999999996293 -2 0  5.499999999998147 -2 0  6 -1.500000000001387 0  6 -1.000000000002774 0  6 -0.5000000000041616 0  6 -5.505595979116151e-12 0  6 0.4999999999958384 0  6 0.9999999999972258 0  6 1.499999999998613 0  5.500000000001853 2 0  5.000000000003705 2 0  4.500000000005556 2 0  4.000000000007409 2 0  3.50000000000926 2 0  3.000000000011112 2 0  2.500000000012963 2 0  2.000000000014814 2 0  1.500000000016665 2 0  1.000000000018516 2 0  0.5000000000203677 2 0  2.204547655537681e-11 2 0  -0.4999999999796305 2 0  -0.9999999999814779 2 0  -1.499999999983327 2 0  -1.999999999985175 2 0  -2.499999999987029 2 0  -2.999999999988882 2 0  -3.499999999990735 2 0  -3.999999999992589 2 0  -4.49999999999444 2 0  -4.999999999996293 2 0  -5.499999999998147 2 0  -6 1.500000000001387 0  -6 1.000000000002774 0  -6 0.5000000000041616 0  -6 5.505595979116151e-12 0  -6 -0.4999999999958384 0  -6 -0.9999999999972258 0  -6 -1.499999999998613 0  -2.776753453941174 -0.1914525314286965 0  -2.708364820523325 -0.3717785376335722 0  -2.598808598538216 -0.5304981265911284 0  -2.454451797386757 -0.65838709271366 0  -2.283683909636528 -0.748012994147384 0  -2.096429344207466 -0.7941670992780535 0  -1.903570655798842 -0.7941670992788195 0  -1.716316090368095 -0.7480129941491368 0  -1.545548202616307 -0.6583870927157747 0  -1.401191401463757 -0.530498126593356 0  -1.291635179477527 -0.371778537635196 0  -1.223246546059047 -0.1914525314295925 0  -1.223246546058803 0.1914525314286035 0  -1.291635179476594 0.3717785376334188 0  -1.401191401461634 0.5304981265909601 0  -1.545548202612898 0.6583870927134221 0  -1.716316090363093 0.7480129941472402 0  -1.903570655792394 0.7941670992780367 0  -2.096429344201276 0.7941670992788055 0  -2.283683909631911 0.7480129941491347 0  -2.454451797383697 0.6583870927157729 0  -2.598808598536385 0.530498126593196 0  -2.70836482052258 0.3717785376349917 0  -2.776753453940975 0.1914525314295042 0  0.4588466633941945 0.2704149791022056 0  -4.424312812173863 0.2760319703992994 0  -3.803977598762586 -0.6841584599595646 0  -0.1330968762779425 -0.6798763971615133 0  2.451109587541276 3.169800318630399e-13 0  -3.563610936250569 0.5929994091167295 0  4.204753319582647 0.2820669554523581 0  -0.4390897559348154 0.6178095532273566 0  -3.041446812595122 1.175550440315544 0  -0.9622132806516797 1.132103015222783 0  1.069493318942931 -0.773608156980569 0  -4.924330687080279 -0.7127064269610045 0  -3.024693497948964 -1.195179289656404 0  -0.9648749555625579 -1.256854520022574 0  -3.443624282349383 -0.2044158249759613 0  -0.5611500783757608 -0.1747080110423833 0  1.60270880116926 0.7487034276124258 0  3.488352576142236 -0.8228939860777884 0  4.816375011670135 -0.8163750116689444 0  3.243628045085357 0.8578172796997985 0  -4.228632884234073 1.228069101636678 0  -2.365220384435482 -1.356128547810356 0  -1.637465979486354 1.3571687267915 0  -1.642380978561139 -1.359365080147485 0  -2.362988915989869 1.356737096243695 0  -5.134120367293631 0.8356299802910161 0  2.077496878467794 -0.9514080034522553 0  4.960859291178299 0.9608592911785537 0  0.3293120056474302 1.148965409695154 0  -5.157560560414062 0.09447106214747865 0  -3.14779387667392 -0.6330563038825547 0  -3.148134455585257 0.4354299640428653 0  -0.8464439673630421 0.4159277415926296 0  -0.9918125625721008 -0.7191748422889824 0  -4.355349213295776 -1.234510499778242 0  1.582074659164868 -0.06850205959954866 0  2.400584045214166 1.204278622181321 0  5.102831660739063 0.03453404176596848 0  4.083259768981113 1.154272958349666 0  -3.992394834362243 -0.1621022234411988 0  0.4290302718942113 -1.225465289645401 0  -3.681487986394671 -1.310544246656267 0  -3.640289698916164 1.187023654838123 0  0.468851680921228 -0.447055967952278 0  3.315209904217932 0.05667935655546536 0  -2.541160649745046 -1.046980928586996 0  -1.45196684542695 1.044189935346116 0  -2.000844595891861 -1.207983108473125 0  -1.453092202970521 -1.061139264918894 0  -2.000050543938391 1.207806685704176 0  -2.548033154566413 1.04418993534851 0  4.13054585796652 -1.232871249381608 0  -0.3301617095463629 1.221692405319566 0  -0.2880491989587189 -1.359626628407983 0  -0.0758941643813178 0.132275811829787 0  2.826389221580753 -1.233168480096227 0  -2.922070412327736 0.7575752117792038 0  1.003070890178416 1.271347915034201 0  -5.319521816151902 -1.310543894393663 0  -1.070407062963812 0.7877698545098388 0  -4.562499863038985 -0.2302396981426722 0  -3.164226661545047 0.07179577787350272 0  -0.9091377812900333 0.132454654016971 0  4.116029045943655 -0.4851826871817362 0  5.316659189209927 -1.316659189208741 0  -0.9498828454673396 -0.4149758979014553 0  -4.037769805263969 0.6896174350675625 0  1.431664772855882 -1.327784137638992 0  -3.646693623568034 0.1600006358878044 0  -2.878371345483476 -0.7910345833001061 0  1.062603041385242 0.2894765870627741 0  -0.547955103783681 0.1635272504420374 0  -4.804809838419659 1.41016301576038 0  -3.042895319571192 -0.3694931303482478 0  -4.59252578392403 0.792267765362792 0  2.823271260730033 -0.5472430318427347 0  -4.28575390662405 -0.7521491832384866 0  -0.5524005545121191 -0.9037367558558163 0  1.815219025072439 1.388812135783969 0  -1.288398729718543 -0.8178399475601057 0  -5.424388493366639 1.35375165044146 0  -2.256991952837567 -1.049538527273222 0  -1.739586738723494 -1.052327527873255 0  -1.738827359988536 1.050180627239116 0  -2.257795730428802 1.049701225145305 0  -0.62222340523776 -0.5483611729237363 0  2.065188519029698 0.5424877383589943 0  0.1055865106318892 0.7347782870471022 0  1.013082573993895 -0.2061877611231605 0  -5.428323520618333 -0.4386412085227075 0  5.374041502384443 -0.5304401760993408 0  3.435185060219232 -1.377658617395091 0  -3.302377238490527 0.8841390072780534 0  -0.9902123298072768 -0.124175295282554 0  0.7186958547669859 0.8724503317343631 0  2.941237214953417 1.390391532351976 0  4.708037787864423 -1.340276032051348 0  5.395029680982659 1.395029680983341 0  3.591022587550188 1.348260650408605 0  2.759385971589342 0.4857447325740718 0  -0.6832705231418494 0.8879387563573758 0  5.437781298507145 0.5981501503262471 0  -2.698603003287285 1.617130043745112 0  -3.463358189947519 -1.013588318179017 0  1.710866040171871 -0.6978716337870808 0  3.642182982762737 0.4555704362064124 0  -2.699802128031161 -1.618310703146212 0  -1.3020054856637 1.619819977935582 0  -2.000000000004996 -1.566396763829867 0  -1.999999999994794 1.566396763830688 0  -1.247812462071684 -1.595232739507426 0  4.59429106759859 1.420052135572917 0  0.9448382581152466 -1.440259145469251 0  -0.116376100998861 -0.2606209011258676 0  -4.774521510507792 0.4245390872783272 0  -2.983910172370106 -0.1208000607277856 0  -3.353983741142061 1.576062863985777 0  -5.473352579109997 0.4917619255280954 0  -4.828650470275986 -1.493148538517745 0  4.639973657165532 -0.2833178611094909 0  -2.660279445404468 0.7699932347178977 0  -1.335045190775955 0.7744876666923373 0  -3.395669172689978 0.2584951122361346 0  2.279110606119369 -1.465899541383697 0  4.734317729212562 0.4520963557364723 0  -0.6334913028224612 1.584213953723378 0  2.121854101359879 -0.4289611127787379 0  -3.474459720833238 -0.4977581316675216 0  -1.066539898844178 0.3411379476537602 0  -3.361849707555382 -1.611428512420182 0  -4.099039818938317 0.3306400369415774 0  -2.935324777364672 0.354721898811665 0  -3.973578595052027 1.482940358734671 0  3.784450148635689 -0.0702780807301525 0  -1.191348122671212 -0.5614501189722798 0  -2.838672605956353 -0.5493179047027598 0  -1.184983441257359 0.5617520886612424 0  -2.811184099847449 0.5574240755049175 0  0.2702752249355158 -0.8003643570420809 0  -0.6945947797857237 -1.593893965175195 0  0.001175881878679056 1.504521009023778 0  0.6072931735145096 1.501814722697789 0  -3.991896293645949 -1.047264188412552 0  -3.734097395159253 -0.3261671578666079 0  -5.539652387691843 -0.8857154182585802 0  -4.395061924111849 1.563293728588296 0  0.2258327611651416 -0.08745142624872881 0  -3.774816634825771 0.8676973328379478 0  2.208484493569073 1.6256686312487 0  0.1309939514660535 -1.566169703482512 0  -5.551414360955331 0.9459842275970113 0  -4.04734138658365 -1.51163984963472 0  -4.947145019546805 -0.3299925153029702 0  4.320410447198621 0.6970857582435144 0  -4.707557346727139 -1.000565649857444 0  1.353711468973986 1.582551234446199 0  1.674156483558973 0.3266252271732694 0  -4.039105552973997 -0.4537604746027087 0  0.01051727619263377 -1.088858357362194 0  -0.2234942609176301 0.8619127912343982 0  -2.95903482691863 0.1219373374385197 0  -4.682467695920681 0.0804575682243254 0  5.535750224195656 -0.1525732643419722 0  -4.290083947414376 -0.0005258314026840717 0  1.136102562417988 0.7655312464039168 0  -2.816589394567214 0.9927597419785312 0  -2.645374456162409 -0.7645902451387543 0  4.18414576655837 1.624276131878667 0  0.7127337088822223 -0.9006358935856398 0  1.972418102153911 0.9727040774616764 0  -2.42199174813501 0.8591219219254587 0  -2.418604734200992 -0.8552987735117754 0  -5.573597213364169 -0.03612430678117123 0  2.024792870869397 0.05574071630590883 0  -1.578875191508968 0.861424470724936 0  -1.54706008231699 -0.8630049102346303 0  3.848662181064435 -1.569601980075533 0  -2.000000000003871 -0.9746445732264465 0  -1.99999999
[...]
<PointData  Scalars="f_24"> 
<DataArray  type="Float64"  Name="f_24"  format="ascii">-7.8249824544662594e-01  -7.8249824544662594e-01  0.0000000000000000e+00  0.0000000000000000e+00  -9.9116959389652348e-01  -1.6320768095983604e-01  -7.7574197697202441e-01  -7.6852628471111062e-01  -7.5994471644773798e-01  -7.4943715250028842e-01  -7.3477660954593582e-01  -7.0522006089591183e-01  -6.5223692854242432e-01  -5.3583579068775233e-01  -3.8105319913333591e-01  -2.4716499046608234e-01  -1.6462912851481101e-01  -1.1874921204702604e-01  -9.2988769915695102e-02  -7.6614996479366468e-02  -6.4531683029135201e-02  -5.5466536233081287e-02  -4.6822723669147970e-02  -3.9808557194960736e-02  -3.2544907448909081e-02  -2.5787450657529496e-02  -1.9110769180375908e-02  -1.2519052589080978e-02  -6.4948455768003722e-03  0.0000000000000000e+00  0.0000000000000000e+00  0.0000000000000000e+00  0.0000000000000000e+00  0.0000000000000000e+00  0.0000000000000000e+00  0.0000000000000000e+00  -6.4704568191306239e-03  -1.2649295414503091e-02  -1.8987916963037796e-02  -2.5953915114487282e-02  -3.2516012796120777e-02  -3.9597200648280304e-02  -4.7055592664471305e-02  -5.5297257508298212e-02  -6.4742207086047443e-02  -7.6527352188114017e-02  -9.2933171755328975e-02  -1.1923883044859515e-01  -1.6361089785000443e-01  -2.4827732626395488e-01  -3.7997686768563821e-01  -5.3598675638456050e-01  -6.5229184206074353e-01  -7.0498830389568801e-01  -7.3490008538306018e-01  -7.4932254622624428e-01  -7.6034908812352731e-01  -7.6839575522982950e-01  -7.7578954033664316e-01  -7.8249824544662594e-01  -7.8249824544662594e-01  -7.8249824544662594e-01  -7.8249824544662594e-01  -7.8249824544662594e-01  -7.8249824544662594e-01  -7.8249824544662594e-01  -9.8463607518328755e-01  -9.6548400814406599e-01  -9.1010544693978901e-01  -8.1347190042520556e-01  -6.9049042857762166e-01  -5.4762624356634360e-01  -4.1103098413596906e-01  -2.9879630854164829e-01  -2.2839172348075701e-01  -1.9049148154544462e-01  -1.7399742835850063e-01  -1.6571380960423948e-01  -1.6575249046083343e-01  -1.7393301852313711e-01  -1.9143942076995843e-01  -2.2769212145112544e-01  -2.9832880450738358e-01  -4.1121538603475188e-01  -5.4761385671844065e-01  -6.9002242935312685e-01  -8.1411356660843093e-01  -9.0935390506840208e-01  -9.6323396293817931e-01  -9.8621124442274744e-01  -1.0627382330173463e-01  -7.7278890993722105e-01  -7.6795064684593906e-01  -1.3488284988368501e-01  -5.1474712217217881e-02  -7.8031460034705469e-01  -2.3849511054715090e-02  -1.5303900055628600e-01  -7.1848094883311686e-01  -2.3364119500287334e-01  -8.1772407163777733e-02  -7.7042011205331984e-01  -7.1525666460011528e-01  -2.4167210390719049e-01  -8.1589495469835971e-01  -1.5328309642338098e-01  -6.7578349493600989e-02  -3.3739743889039504e-02  -1.5412245790347813e-02  -3.7284215498551362e-02  -7.5540602471246920e-01  -6.2467298795789872e-01  -4.2502756413935111e-01  -4.2661723951381619e-01  -6.2414978399295395e-01  -7.7202298317210227e-01  -5.6790423370843383e-02  -1.3446754691516013e-02  -1.0871494660240776e-01  -7.7482389979471022e-01  -7.9959959302319716e-01  -8.3440596282694446e-01  -1.7204298613601385e-01  -2.0134750318492908e-01  -7.5763704854105685e-01  -7.0134036630295701e-02  -5.0238620682964266e-02  -1.1750330284380540e-02  -2.5082413667166313e-02  -7.8137765320444819e-01  -1.0353950560717121e-01  -7.3935654415584828e-01  -7.4122457028208644e-01  -1.0539897354169672e-01  -3.6913592766631295e-02  -6.9665021288350015e-01  -3.3294872176289608e-01  -5.4186812891772040e-01  -3.3556841900445977e-01  -5.4162388478778056e-01  -6.9888176341421626e-01  -2.4402004841997931e-02  -1.5436525434435522e-01  -1.5101364311212967e-01  -1.3036348499803474e-01  -4.3204961993520641e-02  -7.9019699901602092e-01  -8.1309798753972470e-02  -7.7308181709083379e-01  -2.1875567728648107e-01  -7.7260978419275028e-01  -8.6690581952040269e-01  -1.6443976518869771e-01  -2.5018591097466094e-02  -8.8245439192759755e-03  -1.7611557830261221e-01  -7.6654330558904904e-01  -6.9218179822395934e-02  -7.9914085671043755e-01  -7.8298370677512019e-01  -8.4357675534207199e-02  -1.5271285251657923e-01  -7.6493169177890308e-01  -8.6561573211558107e-01  -7.6666920278284489e-01  -4.4428430800145642e-02  -7.6482542651676255e-01  -1.6923555695381873e-01  -6.0660088953875813e-02  -2.4896277090652366e-01  -7.7453255659021225e-01  -6.3519344763684682e-01  -4.2742970516317808e-01  -4.2667866036960439e-01  -6.3537527066720223e-01  -1.6311396747871512e-01  -5.8228753336693646e-02  -1.2153217463292237e-01  -8.6153225358669414e-02  -7.7619943422384619e-01  -8.1501076951408027e-03  -3.3964399341603779e-02  -7.5864234815750919e-01  -1.6546672539987473e-01  -9.3168226986751881e-02  -4.1257423595868009e-02  -1.6656174813906584e-02  -7.7313054842149077e-03  -3.1807062760659602e-02  -4.5570742347221610e-02  -1.8134221911149548e-01  -7.2700392244573649e-03  -6.6211252994554171e-01  -7.4670847967119602e-01  -6.5209179038221529e-02  -3.1806666548390511e-02  -6.6226818270528631e-01  -3.3154908655965659e-01  -5.3075579939483519e-01  -5.3074551547054971e-01  -3.1569848106707016e-01  -1.8081222037984158e-02  -8.2279890919680493e-02  -1.3246650039713309e-01  -7.7153118110787222e-01  -9.1655008039018981e-01  -7.1925393613811461e-01  -7.7674013451038126e-01  -7.6501072974307049e-01  -1.7914647014123430e-02  -7.9532542776664361e-01  -2.4535998292210845e-01  -8.1681917136847293e-01  -5.1809939825212856e-02  -1.6594526436054316e-02  -1.9402509710126345e-01  -5.7375391812214946e-02  -7.9250786584563759e-01  -1.7371266272500441e-01  -7.2020753617743349e-01  -7.7609519264642901e-01  -8.9642045657339398e-01  -7.4619568643091994e-01  -2.9885182000376761e-02  -1.9600042920775992e-01  -8.6345975484333926e-01  -1.9543747636236045e-01  -8.6733014393460506e-01  -1.1283737639291444e-01  -2.0176317861128898e-01  -1.2808865963719002e-01  -9.4668715510802151e-02  -7.5431979675882199e-01  -7.8801548270178479e-01  -7.7670659858264846e-01  -7.5675064358622557e-01  -1.1644368773559263e-01  -7.5931096385537589e-01  -5.2766921011761662e-02  -1.1839704163659967e-01  -7.7683240134373555e-01  -7.4824433546836944e-01  -7.7286269601550650e-01  -2.2089405797164618e-02  -7.6550080785821173e-01  -7.0404227292450577e-02  -6.7360467812612235e-02  -7.7405843121118012e-01  -1.2723721835542443e-01  -1.4129755192363100e-01  -9.2584775614681991e-01  -7.7290301954981522e-01  -6.0678177500951141e-03  -7.7572917068349567e-01  -7.9863760899561612e-02  -7.3365347545221171e-01  -7.9669313748148296e-01  -2.3466493773722334e-02  -9.3266707914341773e-02  -5.8719338541687080e-02  -7.2856747460730786e-01  -7.2797008001441676e-01  -7.7786714481269059e-01  -5.9901757547248108e-02  -3.1276191930400038e-01  -3.0556138488054629e-01  -2.8160751061899397e-02  -5.2395645533104385e-01  -5.2394334997107450e-01  -6.8491498876905077e-01  -3.1312299443455711e-02  -2.6918280232666769e-01  -9.7971384272705644e-02  -5.0055019659156902e-03  -5.3705921841152946e-03  -4.3575615856155978e-02  -3.1152427931827337e-01  -2.5921832819429835e-01  -4.8750278040793238e-02  -2.1347554467797805e-02  -2.2701187303005056e-02  -6.1140520239710741e-02  -1.2021782710905628e-01  -8.2577651271041652e-01  -4.3937116269148327e-02  -6.8442461807377042e-01  -7.9306859510025640e-01  -2.7692839669763176e-02  -3.7424446652841968e-02  -1.2822239788751249e-02  -1.4271471618157688e-01  -1.3309577288378249e-01  -1.6001243550476643e-01  -3.1973330268488714e-01  -4.4024841473230825e-02  -7.4963723064185228e-01  -9.3829657279785428e-02  -7.8139540870081603e-01  -7.7700495862727759e-01  -3.9122122244596186e-02  -1.6393131673276590e-01  -7.6690925450856118e-01  -7.3176911514540210e-01  -1.8396321183893818e-01  -7.5802277299502985e-01  -4.0103867174725763e-02  -1.7879468912515922e-01  -7.1782787562600134e-02  -6.0036279635417800e-01  -4.4178900989783865e-01  -4.3977953513974216e-01  -6.0028793987280127e-01  -6.9649458910031381e-02  -7.2544641906064800e-01  -3.6513947034849489e-02  -1.9520663705148916e-01  -5.0376646385045789e-03  -7.7075356436106257e-01  -8.7062155660387452e-01  -7.3791448402758786e-01  -9.3944914660175863e-02  -7.6125481958312174e-02  -1.8679094363807512e-02  -7.9939509689779786e-01  -9.1646666863091253e-02  -7.7044945248391539e-01  -7.6954245507313290e-01  -7.7133269516985048e-01  -8.2560081617030434e-01  -8.5302844265470035e-01  -1.1916510001977595e-01  -3.0725383236280761e-02  -1.5981695693801778e-01  -7.1601680153894481e-02  -7.6887044244656788e-01  -1.4796508098469507e-01  -1.6495977750473437e-01  -5.5152041104166473e-03  -1.2124915944496386e-02  -1.7284094071507811e-01  -1.5273821315608327e-01  -1.2755688494530477e-02  -3.8463498405515176e-02  -7.7006210888235505e-01  -4.5546230352738637e-02  -9.4057211067079177e-02  -7.9884556665630013e-01  -7.5335758730159152e-01  -7.7846887814271226e-01  -2.0021048121305382e-01  -7.6175241112503378e-01  -1.0693613659146351e-02  -1.8642863240321283e-02  -9.2547101247539099e-01  -1.4615375570915126e-01  -1.0606109321436548e-01  -8.1452653906943451e-02  -7.7773113172276043e-01  -2.8716082126295433e-02  -2.2965058094343783e-02  -7.3572624229103600e-01  -7.2279956889447872e-01  -7.7311024468338874e-01  -4.2052553379638043e-03  -1.6139482283773460e-01  -4.9598415561935637e-02  -5.0557148991548589e-02  -1.4481780150971030e-01  -7.9015626868640818e-02  -8.3671851771942884e-01  -7.9101004046811613e-02  -1.2934787007726770e-01  -7.7903098214952804e-01  -1.8698929106649242e-01  -6.9865436326390817e-01  -7.8513958147928209e-01  -7.7317888148151526e-01  -6.0433205430172027e-02  -2.9608033779175515e-02  -2.5108893504966856e-01  -3.7218822726518197e-03  -7.7948515154094489e-01  -7.7331028195527562e-01  -6.0953247447683101e-02  -7.6806860060852211e-01  -7.6145691628153733e-01  -7.6408914386532201e-01  -1.0709015056860599e-01  -7.4735126607058122e-01  -7.5475236150171898e-01  -7.6127498919666647e-01  -2.7037908029385004e-02  -5.2543469342492127e-02  -1.1931943016144685e-02  -2.2554144548281804e-01  -6.9834483763940747e-01  -1.5281319799339824e-01  -1.4581397885652572e-01  -7.6997655374268603e-01  -3.6896353519680139e-02  -6.3020991836055518e-01  -6.2981209790993742e-01  -3.9028745825710492e-01  -3.8821032942458727e-01  -7.4906090539483425e-02  -6.4619633111418245e-02  </DataArray> 
</PointData> 
</Piece>
</UnstructuredGrid>
</VTKFile>