<?xml version="1.0"?>
<VTKFile type="UnstructuredGrid"  version="0.1"  >
<UnstructuredGrid>
<Piece  NumberOfPoints="622" NumberOfCells="1116">
<Points>
<DataArray  type="Float64"  NumberOfComponents="3"  format="ascii">-6 -2 0  -6 2 0  6 2 0  6 -2 0  -2.8 0 0  -1.2 0 0  -5.500000000001853 -2 0  -5.000000000003705 -2 0  -4.500000000005556 -2 0  -4.000000000007409 -2 0  -3.50000000000926 -2 0  -3.000000000011112 -2 0  -2.500000000012963 -2 0  -2.000000000014814 -2 0  -1.500000000016665 -2 0  -1.000000000018516 -2 0  -0.5000000000203677 -2 0  -2.204547655537681e-11 -2 0  0.4999999999796305 -2 0  0.9999999999814779 -2 0  1.499999999983327 -2 0  1.999999999985175 -2 0  2.499999999987029 -2 0  2.999999999988882 -2 0  3.499999999990735 -2 0  3.999999999992589 -2 0  4.49999999999444 -2 0  4.999999999996293 -2 0  5.499999999998147 -2 0  6 -1.500000000001387 0  6 -1.000000000002774 0  6 -0.5000000000041616 0  6 -5.505595979116151e-12 0  6 0.4999999999958384 0  6 0.9999999999972258 0  6 1.499999999998613 0  5.500000000001853 2 0  5.000000000003705 2 0  4.500000000005556 2 0  4.000000000007409 2 0  3.50000000000926 2 0  3.000000000011112 2 0  2.500000000012963 2 0  2.000000000014814 2 0  1.500000000016665 2 0  1.000000000018516 2 0  0.5000000000203677 2 0  2.204547655537681e-11 2 0  -0.4999999999796305 2 0  -0.9999999999814779 2 0  -1.499999999983327 2 0  -1.999999999985175 2 0  -2.499999999987029 2 0  -2.999999999988882 2 0  -3.499999999990735 2 0  -3.999999999992589 2 0  -4.49999999999444 2 0  -4.999999999996293 2 0  -5.499999999998147 2 0  -6 1.500000000001387 0  -6 1.000000000002774 0  -6 0.5000000000041616 0  -6 5.505595979116151e-12 0  -6 -0.4999999999958384 0  -6 -0.9999999999972258 0  -6 -1.499999999998613 0  -2.796147781337886 -0.07841371226233997 0  -2.784628224322852 -0.1560722576115546 0  -2.765552268586196 -0.2322277418021561 0  -2.739103626009626 -0.30614674589063 0  -2.705537011479457 -0.3771173894593519 0  -2.665175689843037 -0.4444561864141836 0  -2.618408362691456 -0.5075146273293722 0  -2.565685424950688 -0.5656854249477874 0  -2.507514627332613 -0.6184083626887972 0  -2.444456186417533 -0.6651756898407991 0  -2.377117389462776 -0.7055370114776264 0  -2.306146745894456 -0.7391036260080417 0  -2.232227741806235 -0.7655522685849585 0  -2.15607225761588 -0.784628224321992 0  -2.078413712266957 -0.7961477813374315 0  -2.000000000003407 -0.7999999999999998 0  -1.921586287739523 -0.7961477813380696 0  -1.843927742389945 -0.7846282243231506 0  -1.767772258198879 -0.7655522685865098 0  -1.693853254109962 -0.7391036260098718 0  -1.622882610540873 -0.7055370114795768 0  -1.555543813585629 -0.6651756898429115 0  -1.49248537267008 -0.6184083626910072 0  -1.434314575051535 -0.5656854249500112 0  -1.381591637310384 -0.5075146273316149 0  -1.334824310158267 -0.4444561864161359 0  -1.294462988521423 -0.3771173894609975 0  -1.260896373990956 -0.3061467458920351 0  -1.234447731414138 -0.2322277418032578 0  -1.215371775677287 -0.156072257612254 0  -1.203852218662147 -0.07841371226267954 0  -1.203852218662115 0.07841371226235888 0  -1.215371775677132 0.156072257611478 0  -1.234447731413795 0.232227741802127 0  -1.260896373990353 0.3061467458905811 0  -1.294462988520456 0.3771173894591898 0  -1.334824310156812 0.444456186413959 0  -1.381591637308413 0.5075146273292139 0  -1.434314575049147 0.5656854249476236 0  -1.492485372667197 0.6184083626886415 0  -1.555543813582104 0.6651756898405565 0  -1.62288261053673 0.7055370114773629 0  -1.693853254105125 0.7391036260078683 0  -1.767772258193396 0.7655522685848468 0  -1.84392774238373 0.7846282243219146 0  -1.921586287732977 0.7961477813374253 0  -1.999999999996558 0.8 0  -2.078413712260516 0.7961477813380661 0  -2.156072257610207 0.7846282243231205 0  -2.232227741801178 0.7655522685864928 0  -2.306146745890059 0.7391036260098632 0  -2.377117389459098 0.7055370114795929 0  -2.444456186414405 0.6651756898428894 0  -2.50751462732998 0.6184083626909587 0  -2.565685424948549 0.5656854249499272 0  -2.61840836268981 0.5075146273313792 0  -2.665175689841831 0.4444561864159886 0  -2.705537011478692 0.3771173894607835 0  -2.739103626009108 0.3061467458918818 0  -2.76555226858589 0.2322277418031643 0  -2.784628224322724 0.1560722576122001 0  -2.796147781337853 0.07841371226267957 0  0.6720367661319522 0.1312687487860887 0  -4.389489086394485 0.3544472233398538 0  -3.816221554046232 -0.6097988664512611 0  -3.552726516474419 0.9342959806851625 0  -0.2536610443052337 0.8162373554653355 0  -0.1843238977799138 -0.6649951410982842 0  -3.613359951620445 0.1086570650978273 0  -3.146954163409593 -1.074378179335012 0  -0.4255266515582625 0.07734891565364931 0  -0.9413731612925856 1.168014724254929 0  -2.947764053183577 1.200029094390044 0  -0.8319852757411681 -1.058626838707328 0  2.675418990747819 -1.137325591670363e-12 0  -2.602010642259726 -1.287560129290477 0  -2.334401622060699 1.335006108940604 0  -1.524718496628401 1.32890816230333 0  -1.369813829148039 -1.26145150481762 0  -3.294065651892671 -0.4630240940010318 0  -2.072749204569071 -1.388981302138359 0  -0.7546165313921411 0.5601792161340381 0  -3.224879719581335 0.4382689715877901 0  -0.7073137361349826 -0.4625305410752652 0  4.326242945813966 0.3262429458150917 0  -3.187880061217201 0.07437712177460168 0  -2.94792024259867 0.7030255657465158 0  -2.678809277907896 0.9152683582887104 0  -4.911626141576894 -0.5700186648601188 0  -2.980647654587299 -0.5685006168686053 0  -2.769438919323564 -0.8202775213660614 0  -1.936950121013948 1.220669938589229 0  -0.8971643766260747 0.2762459428874499 0  -0.8760878018253068 -0.06836412137772707 0  -1.086827485441145 0.6772548942594016 0  -1.31355927028917 0.8808768148414213 0  -1.034266382739347 -0.5912381576649568 0  -1.241594139118264 -0.836771920085274 0  1.667161185638911 -0.6367996576268693 0  1.778189842800902 0.7191719841256095 0  -3.065106827511819 -0.266795371500425 0  3.714311277362231 -0.7275465302492842 0  -1.728329421201519 -1.09954751473283 0  4.870629493137888 -0.7325040699186681 0  -3.024707894719303 0.2567561910603656 0  -4.375540207252226 1.228935704312058 0  -2.272077148001781 -1.086192861256262 0  3.351408248797803 0.9175227128129597 0  -5.141847419540732 0.8091901960109126 0  0.5769368286199241 1.111816231125821 0  0.7411482978492124 -1.079569101289617 0  -1.074013749991219 0.430231207546053 0  -1.04664573441257 -0.3358382377487088 0  -2.439195336951085 0.9224778883059374 0  -2.902607676587358 0.4360473765597399 0  -1.629450174302152 1.035617385691805 0  -2.146859933125513 1.032375363966426 0  2.587625196444542 -0.9999926061845814 0  -2.529286802957126 -0.8830616815739111 0  -1.493798157676768 -0.8794705728517196 0  -1.932158132383022 -1.026681566564148 0  -4.09956359341904 -0.1372485582942864 0  5.055802064425553 1.050933510837308 0  -4.413659685984891 -1.207626391697488 0  -4.961411026474009 0.1201902955685026 0  -3.771151641156835 -1.303594976371997 0  -3.001321503506133 -0.04919177107285733 0  -3.881733605683001 0.5124517634812003 0  -0.1971627317996802 -1.336445372382849 0  -2.742825060181767 0.6732573903735507 0  2.520439429199979 1.129372838786189 0  -1.026326428668429 0.1384273198437734 0  -2.779290004861729 -0.5844691722665721 0  -2.895095740820851 -0.4261289730972082 0  -1.275682076193407 0.6630703172777138 0  0.1045291701958869 0.3433373435296472 0  5.175560481258801 0.0608563229178163 0  -1.211574424201636 -0.5847362589868093 0  -1.85847006217035 1.007917631940711 0  4.152535916385823 1.131901130662082 0  -1.04878257200685 -0.1253529988863012 0  1.432836501626023 0.05634449574318775 0  3.560672936003603 0.01188897172456759 0  -3.351823698389408 -0.1821329582635926 0  -5.145153363200735 -1.259166339382508 0  0.03473693330309885 -0.1724947236036572 0  -4.377830921337186 -0.6172564090242229 0  -0.3943750728122595 1.410897156959435 0  -1.661073679471639 -0.9342065000197183 0  -1.49086536677686 0.8331714487926741 0  -2.584486130952032 0.7871482690034864 0  4.270535884593893 -1.259607924744415 0  -1.757417028085795 -1.505182186951191 0  -3.430586920998477 1.425579221231371 0  -2.917598827418652 -0.2298465409534677 0  -2.328978331116049 -0.9300959620317677 0  -2.148543000691344 -0.9751580214451921 0  1.002654111360038 -0.4521702885594788 0  -4.628651824080903 -0.1127998710567241 0  -2.948904386702482 0.1555943115410545 0  0.4165242577134774 -0.5629432649478633 0  -3.698137692471105 -0.3173027948676715 0  -3.491400684461791 -0.7926319721650269 0  -0.3844454817728994 0.4680628696134375 0  -3.207830713508533 0.9778749990559993 0  3.229909751065535 -1.326302454776001 0  5.330007715336748 -1.312905173261894 0  -2.649214054100534 -0.713314536278899 0  1.342022964818772 -1.328315248672686 0  -2.556460939068198 1.202372762828344 0  -0.3497819755044588 -0.3080427614060888 0  -4.928440909495523 1.387622767511967 0  1.309170811945155 1.337467055109531 0  -1.352031940181449 -0.7151198948590243 0  -0.6132855723904642 0.9519045895123004 0  4.266838388406324 -0.3707357390867402 0  -3.834389788310238 1.371594798941152 0  -1.187890214580146 0.4851427123079557 0  -1.109118888029193 0.3185947354467283 0  0.1837819401738013 1.234799661476361 0  1.108165254659559 0.6237223548284967 0  -0.5266600156584522 -0.8113991260886402 0  -4.643822083543982 0.7834094684931707 0  -1.146235204666366 -0.4027330721405781 0  2.049029845992713 -0.2664662499985428 0  2.002665761665898 -1.328912351029848 0  -1.678783505586872 0.8978832065736417 0  -2.049499525232052 0.9483890761590005 0  -2.229972236535132 0.9181006323151361 0  -3.033763529945482 -1.54240494280775 0  -3.562344364746847 0.5622550957224539 0  -5.524396842903405 -0.2709714867672603 0  -0.9710982764034376 -1.549038578476423 0  3.058819320130555 -0.5375106252795963 0  -4.170365230099585 0.7342553699229977 0  -1.045878746461381 -8.187420622554697e-05 0  -1.864822945411764 -0.9219031104673102 0  -0.6251005091687033 -0.2120650512195049 0  2.317562622406059 0.4886417799113238 0  -0.6674371191466613 0.1483993095055008 0  -2.705757882979874 1.609712312948224 0  
[...]
<PointData  Vectors="f_22"> 
<DataArray  type="Float64"  Name="f_22"  NumberOfComponents="3" format="ascii">0.0000000000000000e+00 0.0000000000000000e+00 0.0000000000000000e+00  0.0000000000000000e+00 0.0000000000000000e+00 0.0000000000000000e+00  0.0000000000000000e+00 0.0000000000000000e+00 0.0000000000000000e+00  0.0000000000000000e+00 0.0000000000000000e+00 0.0000000000000000e+00  9.9999997644238403e-01 0.0000000000000000e+00 0.0000000000000000e+00  9.9999997644238403e-01 0.0000000000000000e+00 0.0000000000000000e+00  0.0000000000000000e+00 0.0000000000000000e+00 0.0000000000000000e+00  0.0000000000000000e+00 0.0000000000000000e+00 0.0000000000000000e+00  0.0000000000000000e+00 0.0000000000000000e+00 0.0000000000000000e+00  0.0000000000000000e+00 0.0000000000000000e+00 0.0000000000000000e+00  0.0000000000000000e+00 0.0000000000000000e+00 0.0000000000000000e+00  0.0000000000000000e+00 0.0000000000000000e+00 0.0000000000000000e+00  0.0000000000000000e+00 0.0000000000000000e+00 0.0000000000000000e+00  0.0000000000000000e+00 0.0000000000000000e+00 0.0000000000000000e+00  0.0000000000000000e+00 0.0000000000000000e+00 0.0000000000000000e+00  0.0000000000000000e+00 0.0000000000000000e+00 0.0000000000000000e+00  0.0000000000000000e+00 0.0000000000000000e+00 0.0000000000000000e+00  0.0000000000000000e+00 0.0000000000000000e+00 0.0000000000000000e+00  0.0000000000000000e+00 0.0000000000000000e+00 0.0000000000000000e+00  0.0000000000000000e+00 0.0000000000000000e+00 0.0000000000000000e+00  0.0000000000000000e+00 0.0000000000000000e+00 0.0000000000000000e+00  0.0000000000000000e+00 0.0000000000000000e+00 0.0000000000000000e+00  0.0000000000000000e+00 0.0000000000000000e+00 0.0000000000000000e+00  0.0000000000000000e+00 0.0000000000000000e+00 0.0000000000000000e+00  0.0000000000000000e+00 0.0000000000000000e+00 0.0000000000000000e+00  0.0000000000000000e+00 0.0000000000000000e+00 0.0000000000000000e+00  0.0000000000000000e+00 0.0000000000000000e+00 0.0000000000000000e+00  0.0000000000000000e+00 0.0000000000000000e+00 0.0000000000000000e+00  0.0000000000000000e+00 0.0000000000000000e+00 0.0000000000000000e+00  2.8157579564149304e-01 1.3445836541959644e-04 0.0000000000000000e+00  3.0554259477465323e-01 1.6399450987224473e-04 0.0000000000000000e+00  3.0691472784735518e-01 -1.7073211309888316e-05 0.0000000000000000e+00  3.0699802201019771e-01 -4.8128995305466911e-06 0.0000000000000000e+00  3.0693267373760824e-01 -3.3787821953551915e-06 0.0000000000000000e+00  3.0622460569795534e-01 2.1486038742817603e-04 0.0000000000000000e+00  2.8222428918596032e-01 -4.7452226154002738e-04 0.0000000000000000e+00  0.0000000000000000e+00 0.0000000000000000e+00 0.0000000000000000e+00  0.0000000000000000e+00 0.0000000000000000e+00 0.0000000000000000e+00  0.0000000000000000e+00 0.0000000000000000e+00 0.0000000000000000e+00  0.0000000000000000e+00 0.0000000000000000e+00 0.0000000000000000e+00  0.0000000000000000e+00 0.0000000000000000e+00 0.0000000000000000e+00  0.0000000000000000e+00 0.0000000000000000e+00 0.0000000000000000e+00  0.0000000000000000e+00 0.0000000000000000e+00 0.0000000000000000e+00  0.0000000000000000e+00 0.0000000000000000e+00 0.0000000000000000e+00  0.0000000000000000e+00 0.0000000000000000e+00 0.0000000000000000e+00  0.0000000000000000e+00 0.0000000000000000e+00 0.0000000000000000e+00  0.0000000000000000e+00 0.0000000000000000e+00 0.0000000000000000e+00  0.0000000000000000e+00 0.0000000000000000e+00 0.0000000000000000e+00  0.0000000000000000e+00 0.0000000000000000e+00 0.0000000000000000e+00  0.0000000000000000e+00 0.0000000000000000e+00 0.0000000000000000e+00  0.0000000000000000e+00 0.0000000000000000e+00 0.0000000000000000e+00  0.0000000000000000e+00 0.0000000000000000e+00 0.0000000000000000e+00  0.0000000000000000e+00 0.0000000000000000e+00 0.0000000000000000e+00  0.0000000000000000e+00 0.0000000000000000e+00 0.0000000000000000e+00  0.0000000000000000e+00 0.0000000000000000e+00 0.0000000000000000e+00  0.0000000000000000e+00 0.0000000000000000e+00 0.0000000000000000e+00  0.0000000000000000e+00 0.0000000000000000e+00 0.0000000000000000e+00  0.0000000000000000e+00 0.0000000000000000e+00 0.0000000000000000e+00  0.0000000000000000e+00 0.0000000000000000e+00 0.0000000000000000e+00  2.7606491057213739e-01 -1.0668242103458840e-03 0.0000000000000000e+00  3.0353142419898294e-01 -1.0098782985436877e-03 0.0000000000000000e+00  3.1235654445242883e-01 -1.2869339591141350e-03 0.0000000000000000e+00  3.1691884254065533e-01 9.7320398843964552e-04 0.0000000000000000e+00  3.1324412064781387e-01 5.0093433150105260e-04 0.0000000000000000e+00  3.0450629635895277e-01 9.1412343635024075e-04 0.0000000000000000e+00  2.7570864215760837e-01 8.6685247236462971e-04 0.0000000000000000e+00  9.9999997644238403e-01 0.0000000000000000e+00 0.0000000000000000e+00  9.9999997644238403e-01 0.0000000000000000e+00 0.0000000000000000e+00  9.9999997644238403e-01 0.0000000000000000e+00 0.0000000000000000e+00  9.9999997644238403e-01 0.0000000000000000e+00 0.0000000000000000e+00  9.9999997644238403e-01 0.0000000000000000e+00 0.0000000000000000e+00  9.9999997644238403e-01 0.0000000000000000e+00 0.0000000000000000e+00  9.9999997644238403e-01 0.0000000000000000e+00 0.0000000000000000e+00  9.9999997644238403e-01 0.0000000000000000e+00 0.0000000000000000e+00  9.9999997644238403e-01 0.0000000000000000e+00 0.0000000000000000e+00  9.9999997644238403e-01 0.0000000000000000e+00 0.0000000000000000e+00  9.9999997644238403e-01 0.0000000000000000e+00 0.0000000000000000e+00  9.9999997644238403e-01 0.0000000000000000e+00 0.0000000000000000e+00  9.9999997644238403e-01 0.0000000000000000e+00 0.0000000000000000e+00  9.9999997644238403e-01 0.0000000000000000e+00 0.0000000000000000e+00  9.9999997644238403e-01 0.0000000000000000e+00 0.0000000000000000e+00  9.9999997644238403e-01 0.0000000000000000e+00 0.0000000000000000e+00  9.9999997644238403e-01 0.0000000000000000e+00 0.0000000000000000e+00  9.9999997644238403e-01 0.0000000000000000e+00 0.0000000000000000e+00  9.9999997644238403e-01 0.0000000000000000e+00 0.0000000000000000e+00  9.9999997644238403e-01 0.0000000000000000e+00 0.0000000000000000e+00  9.9999997644238403e-01 0.0000000000000000e+00 0.0000000000000000e+00  9.9999997644238403e-01 0.0000000000000000e+00 0.0000000000000000e+00  9.9999997644238403e-01 0.0000000000000000e+00 0.0000000000000000e+00  9.9999997644238403e-01 0.0000000000000000e+00 0.0000000000000000e+00  9.9999997644238403e-01 0.0000000000000000e+00 0.0000000000000000e+00  9.9999997644238403e-01 0.0000000000000000e+00 0.0000000000000000e+00  9.9999997644238403e-01 0.0000000000000000e+00 0.0000000000000000e+00  9.9999997644238403e-01 0.0000000000000000e+00 0.0000000000000000e+00  9.9999997644238403e-01 0.0000000000000000e+00 0.0000000000000000e+00  9.9999997644238403e-01 0.0000000000000000e+00 0.0000000000000000e+00  9.9999997644238403e-01 0.0000000000000000e+00 0.0000000000000000e+00  9.9999997644238403e-01 0.0000000000000000e+00 0.0000000000000000e+00  9.9999997644238403e-01 0.0000000000000000e+00 0.0000000000000000e+00  9.9999997644238403e-01 0.0000000000000000e+00 0.0000000000000000e+00  9.9999997644238403e-01 0.0000000000000000e+00 0.0000000000000000e+00  9.9999997644238403e-01 0.0000000000000000e+00 0.0000000000000000e+00  9.9999997644238403e-01 0.0000000000000000e+00 0.0000000000000000e+00  9.9999997644238403e-01 0.0000000000000000e+00 0.0000000000000000e+00  9.9999997644238403e-01 0.0000000000000000e+00 0.0000000000000000e+00  9.9999997644238403e-01 0.0000000000000000e+00 0.0000000000000000e+00  9.9999997644238403e-01 0.0000000000000000e+00 0.0000000000000000e+00  9.9999997644238403e-01 0.0000000000000000e+00 0.0000000000000000e+00  9.9999997644238403e-01 0.0000000000000000e+00 0.0000000000000000e+00  9.9999997644238403e-01 0.0000000000000000e+00 0.0000000000000000e+00  9.9999997644238403e-01 0.0000000000000000e+00 0.0000000000000000e+00  9.9999997644238403e-01 0.0000000000000000e+00 0.0000000000000000e+00  9.9999997644238403e-01 0.0000000000000000e+00 0.0000000000000000e+00  9.9999997644238403e-01 0.0000000000000000e+00 0.0000000000000000e+00  9.9999997644238403e-01 0.0000000000000000e+00 0.0000000000000000e+00  9.9999997644238403e-01 0.0000000000000000e+00 0.0000000000000000e+00  9.9999997644238403e-01 0.0000000000000000e+00 0.0000000000000000e+00  9.9999997644238403e-01 0.0000000000000000e+00 0.0000000000000000e+00  9.9999997644238403e-01 0.0000000000000000e+00 0.0000000000000000e+00  9.9999997644238403e-01 0.0000000000000000e+00 0.0000000000000000e+00  9.9999997644238403e-01 0.0000000000000000e+00 0.0000000000000000e+00  9.9999997644238403e-01 0.0000000000000000e+00 0.0000000000000000e+00  9.9999997644238403e-01 0.0000000000000000e+00 0.0000000000000000e+00  9.9999997644238403e-01 0.0000000000000000e+00 0.0000000000000000e+00  9.9999997644238403e-01 0.0000000000000000e+00 0.0000000000000000e+00  9.9999997644238403e-01 0.0000000000000000e+00 0.0000000000000000e+00  9.9999997644238403e-01 0.0000000000000000e+00 0.0000000000000000e+00  9.9999997644238403e-01 0.0000000000000000e+00 0.0000000000000000e+00  6.0243567204985782e-01 2.7978345100960936e-02 0.0000000000000000e+00  3.2817514249922564e-01 -1.2280682416006669e-02 0.0000000000000000e+00  3.3340686099024291e-01 5.8450241161486574e-02 0.0000000000000000e+00  2.8629954414776221e-01 -8.7493505692291113e-02 0.0000000000000000e+00  5.1225045644300371e-01 2.1660097176434437e-01 0.0000000000000000e+00  6.0514772809682904e-01 -1.6750537252401998e-01 0.0000000000000000e+00  4.0664963583272107e-01 -2.0732764805219437e-02 0.0000000000000000e+00  1.9425991061296469e-01 1.3174705956050192e-01 0.0000000000000000e+00  8.6229372208449684e-01 1.8004842838195589e-02 0.0000000000000000e+00  5.3290812554840139e-02 2.1749950007092003e-01 0.0000000000000000e+00  1.1979399016378582e-01 -1.2274772956889719e-01 0.0000000000000000e+00  3.2296277073935625e-01 -2.8134131379801675e-01 0.0000000000000000e+00  3.2153279237908694e-01 -1.8877058016928419e-04 0.0000000000000000e+00  -4.3605987388577690e-02 2.1558210849777720e-01 0.0000000000000000e+00  -2.3317792114149452e-01 -3.0098899221782327e-01 0.0000000000000000e+00  -4.6069818472278967e-01 -2.0870036502481346e-01 0.0000000000000000e+00  -3.2561641155971149e-01 9.1106174225256076e-02 0.0000000000000000e+00  4.0324492479495833e-01 1.5635648784652439e-01 0.0000000000000000e+00  -3.9917343083477419e-01 3.2702624436044808e-01 0.0000000000000000e+00  8.3734648644599541e-01 1.3947092666932520e-01 0.0000000000000000e+00  4.2546441118013734e-01 -1.7650031364317087e-01 0.0000000000000000e+00  8.5653804356476393e-01 -1.1397357580947060e-01 0.0000000000000000e+00  3.0743572265920976e-01 3.3506192014547018e-04 0.0000000000000000e+00  5.5791718360690878e-01 -4.2304674256815208e-02 0.0000000000000000e+00  2.5473905875515857e-01 -3.2787608338772861e-01 0.0000000000000000e+00  -1.0056038079212638e-02 -4.2326526322242547e-01 0.0000000000000000e+00  3.1452761768997628e-01 6.2737344726035392e-03 0.0000000000000000e+00  3.6409074012356890e-01 3.3556474444925943e-01 0.0000000000000000e+00  9.2418861084140172e-02 4.2239447233439475e-01 0.0000000000000000e+00  -3.8432367628504571e-01 -3.6796793806803235e-01 0.0000000000000000e+00  9.4861925108578937e-01 5.0221399357775684e-02 0.0000000000000000e+00  9.6392333524828366e-01 -1.3536651677645350e-02 0.0000000000000000e+00  9.2334554508329170e-01 1.1340629288365534e-01 0.0000000000000000e+00  6.8033432912527247e-01 5.9492259669628171e-02 0.0000000000000000e+00  9.2034858072563508e-01 -1.0294905241568642e-01 0.0000000000000000e+00  7.9261559262109038e-01 -9.0550706125664904e-02 0.0000000000000000e+00  3.3856232834945565e-01 -8.4223782908487865e-02 0.0000000000000000e+00  3.2143017344853420e-01 7.5127474298342808e-02 0.0000000000000000e+00  5.6788212300400220e-01 2.0254283295046446e-01 0.0000000000000000e+00  3.0713231218810599e-01 -1.9083940418625118e-03 0.0000000000000000e+00  -1.4691906877920272e-01 2.2702201098881211e-01 0.0000000000000000e+00  3.0679111534914466e-01 -2.5527907480269883e-04 0.0000000000000000e+00  5.9786534939115588e-01 -2.1908001059956445e-01 0.0000000000000000e+00  2.9116743019914265e-01 -1.7698763989094826e-02 0.0000000000000000e+00  -3.1259128484291965e-01 4.7910187585847686e-01 0.0000000000000000e+00  3.0462409880101443e-01 3.5843328732978606e-03 0.0000000000000000e+00  3.0859171057219326e-01 -3.8897254595613323e-03 0.0000000000000000e+00  1.9972457372857730e-01 1.7460702187318389e-01 0.0000000000000000e+00  2.1991314412185015e-01 -1.7251435306456964e-01 0.0000000000000000e+00  9.5702656179517709e-01 5.6779690048525490e-02 0.0000000000000000e+00  9.6721121484458716e-01 -4.4471896781708785e-02 0.0000000000000000e+00  -1.9565546764422045e-01 -5.6346614799040839e-01 0.0000000000000000e+00  4.9905942910089129e-01 -3.7824950608758434e-01 0.0000000000000000e+00  6.3480347901011147e-02 -1.4690235744951421e-01 0.0000000000000000e+00  -3.0813517790716127e-01 -4.3048022235557043e-01 0.0000000000000000e+00  3.0006732767477812e-01 -1.6227253751145854e-02 0.0000000000000000e+00  -1.0272763020473678e-01 5.5194264941606230e-01 0.0000000000000000e+00  6.2782457869468211e-01 -1.8591514262780284e-03 0.0000000000000000e+00  -1.7736386955109967e-01 2.9415354134205557e-01 0.0000000000000000e+00  3.4730876658889709e-01 1.0257482607879034e-02 0.0000000000000000e+00  3.0474982829231201e-01 4.1813541382997466e-04 0.0000000000000000e+00  2.9211075224553185e-01 1.7199327409493696e-02 0.0000000000000000e+00  3.1991481459959492e-01 -8.4207111649648228e-04 0.0000000000000000e+00  2.5939436584401160e-01 3.9407545173021342e-02 0.0000000000000000e+00  7.0866271254892665e-01 3.9491593684602103e-02 0.0000000000000000e+00  3.4097233587920606e-01 -4.5675286034510931e-02 0.0000000000000000e+00  -4.8745204217535067e-02 -2.1431778286357492e-01 0.0000000000000000e+00  1.9440707254633846e-01 -5.2393420020045101e-01 0.0000000000000000e+00  2.9338592250437961e-01 1.7400520030051627e-02 0.0000000000000000e+00  9.8461184694155734e-01 1.6421934524902801e-02 0.0000000000000000e+00  3.1249364596324541e-01 5.2180377458736971e-01 0.0000000000000000e+00  5.2017705049741825e-01 3.7467649007585802e-01 0.0000000000000000e+00  9.7531970636027909e-01 4.9970013373466883e-02 0.0000000000000000e+00  6.8618206256226699e-01 7.7208304284650989e-02 0.0000000000000000e+00  3.0708789126711522e-01 9.4828033275348372e-05 0.0000000000000000e+00  9.6442496049983129e-01 -5.5053188286184052e-02 0.0000000000000000e+00  -7.8194706786539156e-02 -2.3871118189189341e-01 0.0000000000000000e+00  3.0355827984054745e-01 7.7869551528388743e-04 0.0000000000000000e+00  9.8807461096157667e-01 -1.4485034028649283e-02 0.0000000000000000e+00  4.4642816386241035e-01 1.1744291342412392e-02 0.0000000000000000e+00  3.0958311834966107e-01 4.2451325753323740e-05 0.0000000000000000e+00  4.6902267345725157e-01 6.7644057879158448e-02 0.0000000000000000e+00  2.9582749165437039e-01 4.0641748613223774e-03 0.0000000000000000e+00  7.3940514766238696e-01 -4.0793770086183775e-02 0.0000000000000000e+00  3.1928210173973337e-01 1.9907345122640002e-02 0.0000000000000000e+00  -1.4435262084859965e-01 2.1838202041807012e-01 0.0000000000000000e+00  3.1885320847576609e-01 7.0064416413408978e-02 0.0000000000000000e+00  7.9522861764608288e-01 1.3549056603625017e-02 0.0000000000000000e+00  -3.8615468024055508e-02 -6.1931629820932199e-01 0.0000000000000000e+00  3.0085717366420828e-01 -4.3015790350363971e-04 0.0000000000000000e+00  -5.8609806603349845e-01 2.5622811235541459e-01 0.0000000000000000e+00  2.1239089090326665e-01 -4.0452719052150907e-02 0.0000000000000000e+00  6.9807721381120869e-01 2.6649681892000215e-01 0.0000000000000000e+00  -2.6529966080936013e-01 5.3970412289576686e-01 0.0000000000000000e+00  -2.8017001802902930e-01 4.0961863063433812e-01 0.0000000000000000e+00  4.7484230753856155e-01 -9.0354528187129482e-02 0.0000000000000000e+00  3.2526571315610669e-01 3.2158184280392881e-03 0.0000000000000000e+00  7.2533205603114892e-01 -1.6748732155710425e-01 0.0000000000000000e+00  5.3929466861407527e-01 -1.1659150505988955e-01 0.0000000000000000e+00  3.7579690638242491e-01 4.9883979224076051e-02 0.0000000000000000e+00  3.0509967619207445e-01 1.0748147326470592e-01 0.0000000000000000e+00  7.6117354564765893e-01 1.2095040307771276e-01 0.0000000000000000e+00  2.3126299609598042e-01 -1.4173786120834511e-01 0.0000000000000000e+00  2.9470866810592183e-01 -2.9841118077093463e-03 0.0000000000000000e+00  2.9912039137049762e-01 -4.1518324538824706e-05 0.0000000000000000e+00  7.2741862904569132e-02 6.2059822635719897e-01 0.0000000000000000e+00  1.9229758641035644e-01 -9.2461250688949434e-02 0.0000000000000000e+00  -9.2553129113741653e-02 -2.8950065282076148e-01 0.0000000000000000e+00  8.0449365613398827e-01 -7.8987339867858580e-02 0.0000000000000000e+00  2.8622943750213514e-01 -5.2869411760207890e-03 0.0000000000000000e+00  1.8209618815536993e-01 9.2664890558309412e-02 0.0000000000000000e+00  9.7595719430199745e-01 -3.8473193179206909e-02 0.0000000000000000e+00  4.7266033615240893e-01 2.9192487139098927e-01 0.0000000000000000e+00  3.0745838919193291e-01 -4.4553427296400452e-04 0.0000000000000000e+00  2.5635700263649619e-01 -3.1498572609178613e-02 0.0000000000000000e+00  9.6950135116187375e-01 4.2915348091054288e-02 0.0000000000000000e+00  9.7965436273902473e-01 3.1334064189718236e-02 0.0000000000000000e+00  9.9433728657601195e-02 1.8946779637253244e-01 0.0000000000000000e+00  4.0217125860691427e-01 1.1866438777579616e-01 0.0000000000000000e+00  6.0257708118558961e-01 -2.4132944935526648e-01 0.0000000000000000e+00  3.1136133903272323e-01 -1.2195576212045358e-02 0.0000000000000000e+00  9.7434711887735193e-01 -3.8282655213056155e-02 0.0000000000000000e+00  3.4774870526978169e-01 -2.3955207014524978e-02 0.0000000000000000e+00  2.6420132157190818e-01 -3.2509289962716278e-02 0.0000000000000000e+00  4.5477319199156702e-01 -4.0205134311421420e-02 0.0000000000000000e+00  -1.9423526918373490e-01 -3.0216713563948611e-01 0.0000000000000000e+00  -2.9155827490233605e-01 -4.7951485028540830e-01 0.0000000000000000e+00  1.3928617598732199e-01 2.8818670954971797e-02 0.0000000000000000e+00  3.5243189977448031e-01 -9.1760409137314480e-02 0.0000000000000000e+00  3.1555547849441273e-01 7.9839750119224619e-04 0.0000000000000000e+00  -5.6941691920711446e-01 -8.9209580568317431e-02 0.0000000000000000e+00  3.1033634906253033e-01 -5.9362246936431745e-03 0.0000000000000000e+00  3.1672236901330031e-01 -3.0935078110735679e-02 0.0000000000000000e+00  9.9022313374479431e-01 -3.6732263736716800e-04 0.0000000000000000e+00  1.3042692168851541e-01 1.1697852496081500e-01 0.0000000000000000e+00  8.9539134923884656e-01 -5.1062450869282495e-02 0.0000000000000000e+00  3.2301246336197409e-01 2.2737315612245155e-02 0.0000000000000000e+00  9.1564675684524865e-01 3.3391557368462665e-02 0.0000000000000000e+00  8.5384775147909681e-02 -3.7770038638312541e-02 0.0000000000000000e+00  2.5173502052158114e-01 3.3271587078688880e-02 0.0000000000000000e+00  3.5633663212443650e-01 -5.2128737224493804e-01 0.0000000000000000e+00  6.4657525846682773e-01 -3.8833503104696998e-01 0.0000000000000000e+00  9.2774620602893509e-01 -5.7603744166591822e-02 0.0000000000000000e+00  2.9997693147888510e-01 1.9058169169446926e-01 0.0000000000000000e+00  2.9631206541384592e-01 -1.2042748233055749e-03 0.0000000000000000e+00  2.2482177106662551e-01 -1.9390096044955946e-01 0.0000000000000000e+00  -7.0901520645988536e-01 1.5359399604053388e-02 0.0000000000000000e+00  3.1160046226881200e-01 -1.8936509304695254e-01 0.0000000000000000e+00  -4.0211959439334150e-01 -1.6376361519245264e-01 0.0000000000000000e+00  3.6069774171178004e-01 -1.2542809672209821e-02 0.0000000000000000e+00  9.6908840634099214e-01 3.1171909613103385e-02 0.0000000000000000e+00  8.8852779522150360e-01 8.2435960975296235e-02 0.0000000000000000e+00  5.8128131013071505e-01 3.8069615256902678e-01 0.0000000000000000e+00  7.2098351525786852e-01 2.3284098128147857e-01 0.0000000000000000e+00  9.9046803737870104e-01 -1.76464325566473