<?xml version="1.0"?>
<VTKFile type="UnstructuredGrid"  version="0.1"  >
<UnstructuredGrid>
<Piece  NumberOfPoints="406" NumberOfCells="722">
<Points>
<DataArray  type="Float64"  NumberOfComponents="3"  format="ascii">-6 -2 0  -6 2 0  6 2 0  6 -2 0  -2.8 0 0  -1.2 0 0  -5.500000000001853 -2 0  -5.000000000003705 -2 0  -4.500000000005556 -2 0  -4.000000000007409 -2 0  -3.50000000000926 -2 0  -3.000000000011112 -2 0  -2.500000000012963 -2 0  -2.000000000014814 -2 0  -1.500000000016665 -2 0  -1.000000000018516 -2 0  -0.5000000000203677 -2 0  -2.204547655537681e-11 -2 0  0.4999999999796305 -2 0  0.9999999999814779 -2 0  1.499999999983327 -2 0  1.999999999985175 -2 0  2.499999999987029 -2 0  2.999999999988882 -2 0  3.499999999990735 -2 0  3.999999999992589 -2 0  4.49999999999444 -2 0  4.999999999996293 -2 0  5.499999999998147 -2 0  6 -1.500000000001387 0  6 -1.000000000002774 0  6 -0.5000000000041616 0  6 -5.505595979116151e-12 0  6 0.4999999999958384 0  6 0.9999999999972258 0  6 1.499999999998613 0  5.500000000001853 2 0  5.000000000003705 2 0  4.500000000005556 2 0  4.000000000007409 2 0  3.50000000000926 2 0  3.000000000011112 2 0  2.500000000012963 2 0  2.000000000014814 2 0  1.500000000016665 2 0  1.000000000018516 2 0  0.5000000000203677 2 0  2.204547655537681e-11 2 0  -0.4999999999796305 2 0  -0.9999999999814779 2 0  -1.499999999983327 2 0  -1.999999999985175 2 0  -2.499999999987029 2 0  -2.999999999988882 2 0  -3.499999999990735 2 0  -3.999999999992589 2 0  -4.49999999999444 2 0  -4.999999999996293 2 0  -5.499999999998147 2 0  -6 1.500000000001387 0  -6 1.000000000002774 0  -6 0.5000000000041616 0  -6 5.505595979116151e-12 0  -6 -0.4999999999958384 0  -6 -0.9999999999972258 0  -6 -1.499999999998613 0  -2.776753453941174 -0.1914525314286965 0  -2.708364820523325 -0.3717785376335722 0  -2.598808598538216 -0.5304981265911284 0  -2.454451797386757 -0.65838709271366 0  -2.283683909636528 -0.748012994147384 0  -2.096429344207466 -0.7941670992780535 0  -1.903570655798842 -0.7941670992788195 0  -1.716316090368095 -0.7480129941491368 0  -1.545548202616307 -0.6583870927157747 0  -1.401191401463757 -0.530498126593356 0  -1.291635179477527 -0.371778537635196 0  -1.223246546059047 -0.1914525314295925 0  -1.223246546058803 0.1914525314286035 0  -1.291635179476594 0.3717785376334188 0  -1.401191401461634 0.5304981265909601 0  -1.545548202612898 0.6583870927134221 0  -1.716316090363093 0.7480129941472402 0  -1.903570655792394 0.7941670992780367 0  -2.096429344201276 0.7941670992788055 0  -2.283683909631911 0.7480129941491347 0  -2.454451797383697 0.6583870927157729 0  -2.598808598536385 0.530498126593196 0  -2.70836482052258 0.3717785376349917 0  -2.776753453940975 0.1914525314295042 0  0.4588466633941945 0.2704149791022056 0  -4.424312812173863 0.2760319703992994 0  -3.803977598762586 -0.6841584599595646 0  -0.1330968762779425 -0.6798763971615133 0  2.451109587541276 3.169800318630399e-13 0  -3.563610936250569 0.5929994091167295 0  4.204753319582647 0.2820669554523581 0  -0.4390897559348154 0.6178095532273566 0  -3.041446812595122 1.175550440315544 0  -0.9622132806516797 1.132103015222783 0  1.069493318942931 -0.773608156980569 0  -4.924330687080279 -0.7127064269610045 0  -3.024693497948964 -1.195179289656404 0  -0.9648749555625579 -1.256854520022574 0  -3.443624282349383 -0.2044158249759613 0  -0.5611500783757608 -0.1747080110423833 0  1.60270880116926 0.7487034276124258 0  3.488352576142236 -0.8228939860777884 0  4.816375011670135 -0.8163750116689444 0  3.243628045085357 0.8578172796997985 0  -4.228632884234073 1.228069101636678 0  -2.365220384435482 -1.356128547810356 0  -1.637465979486354 1.3571687267915 0  -1.642380978561139 -1.359365080147485 0  -2.362988915989869 1.356737096243695 0  -5.134120367293631 0.8356299802910161 0  2.077496878467794 -0.9514080034522553 0  4.960859291178299 0.9608592911785537 0  0.3293120056474302 1.148965409695154 0  -5.157560560414062 0.09447106214747865 0  -3.14779387667392 -0.6330563038825547 0  -3.148134455585257 0.4354299640428653 0  -0.8464439673630421 0.4159277415926296 0  -0.9918125625721008 -0.7191748422889824 0  -4.355349213295776 -1.234510499778242 0  1.582074659164868 -0.06850205959954866 0  2.400584045214166 1.204278622181321 0  5.102831660739063 0.03453404176596848 0  4.083259768981113 1.154272958349666 0  -3.992394834362243 -0.1621022234411988 0  0.4290302718942113 -1.225465289645401 0  -3.681487986394671 -1.310544246656267 0  -3.640289698916164 1.187023654838123 0  0.468851680921228 -0.447055967952278 0  3.315209904217932 0.05667935655546536 0  -2.541160649745046 -1.046980928586996 0  -1.45196684542695 1.044189935346116 0  -2.000844595891861 -1.207983108473125 0  -1.453092202970521 -1.061139264918894 0  -2.000050543938391 1.207806685704176 0  -2.548033154566413 1.04418993534851 0  4.13054585796652 -1.232871249381608 0  -0.3301617095463629 1.221692405319566 0  -0.2880491989587189 -1.359626628407983 0  -0.0758941643813178 0.132275811829787 0  2.826389221580753 -1.233168480096227 0  -2.922070412327736 0.7575752117792038 0  1.003070890178416 1.271347915034201 0  -5.319521816151902 -1.310543894393663 0  -1.070407062963812 0.7877698545098388 0  -4.562499863038985 -0.2302396981426722 0  -3.164226661545047 0.07179577787350272 0  -0.9091377812900333 0.132454654016971 0  4.116029045943655 -0.4851826871817362 0  5.316659189209927 -1.316659189208741 0  -0.9498828454673396 -0.4149758979014553 0  -4.037769805263969 0.6896174350675625 0  1.431664772855882 -1.327784137638992 0  -3.646693623568034 0.1600006358878044 0  -2.878371345483476 -0.7910345833001061 0  1.062603041385242 0.2894765870627741 0  -0.547955103783681 0.1635272504420374 0  -4.804809838419659 1.41016301576038 0  -3.042895319571192 -0.3694931303482478 0  -4.59252578392403 0.792267765362792 0  2.823271260730033 -0.5472430318427347 0  -4.28575390662405 -0.7521491832384866 0  -0.5524005545121191 -0.9037367558558163 0  1.815219025072439 1.388812135783969 0  -1.288398729718543 -0.8178399475601057 0  -5.424388493366639 1.35375165044146 0  -2.256991952837567 -1.049538527273222 0  -1.739586738723494 -1.052327527873255 0  -1.738827359988536 1.050180627239116 0  -2.257795730428802 1.049701225145305 0  -0.62222340523776 -0.5483611729237363 0  2.065188519029698 0.5424877383589943 0  0.1055865106318892 0.7347782870471022 0  1.013082573993895 -0.2061877611231605 0  -5.428323520618333 -0.4386412085227075 0  5.374041502384443 -0.5304401760993408 0  3.435185060219232 -1.377658617395091 0  -3.302377238490527 0.8841390072780534 0  -0.9902123298072768 -0.124175295282554 0  0.7186958547669859 0.8724503317343631 0  2.941237214953417 1.390391532351976 0  4.708037787864423 -1.340276032051348 0  5.395029680982659 1.395029680983341 0  3.591022587550188 1.348260650408605 0  2.759385971589342 0.4857447325740718 0  -0.6832705231418494 0.8879387563573758 0  5.437781298507145 0.5981501503262471 0  -2.698603003287285 1.617130043745112 0  -3.463358189947519 -1.013588318179017 0  1.710866040171871 -0.6978716337870808 0  3.642182982762737 0.4555704362064124 0  -2.699802128031161 -1.618310703146212 0  -1.3020054856637 1.619819977935582 0  -2.000000000004996 -1.566396763829867 0  -1.999999999994794 1.566396763830688 0  -1.247812462071684 -1.595232739507426 0  4.59429106759859 1.420052135572917 0  0.9448382581152466 -1.440259145469251 0  -0.116376100998861 -0.2606209011258676 0  -4.774521510507792 0.4245390872783272 0  -2.983910172370106 -0.1208000607277856 0  -3.353983741142061 1.576062863985777 0  -5.473352579109997 0.4917619255280954 0  -4.828650470275986 -1.493148538517745 0  4.639973657165532 -0.2833178611094909 0  -2.660279445404468 0.7699932347178977 0  -1.335045190775955 0.7744876666923373 0  -3.395669172689978 0.2584951122361346 0  2.279110606119369 -1.465899541383697 0  4.734317729212562 0.4520963557364723 0  -0.6334913028224612 1.584213953723378 0  2.121854101359879 -0.4289611127787379 0  -3.474459720833238 -0.4977581316675216 0  -1.066539898844178 0.3411379476537602 0  -3.361849707555382 -1.611428512420182 0  -4.099039818938317 0.3306400369415774 0  -2.935324777364672 0.354721898811665 0  -3.973578595052027 1.482940358734671 0  3.784450148635689 -0.0702780807301525 0  -1.191348122671212 -0.5614501189722798 0  -2.838672605956353 -0.5493179047027598 0  -1.184983441257359 0.5617520886612424 0  -2.811184099847449 0.5574240755049175 0  0.2702752249355158 -0.8003643570420809 0  -0.6945947797857237 -1.593893965175195 0  0.001175881878679056 1.504521009023778 0  0.6072931735145096 1.501814722697789 0  -3.991896293645949 -1.047264188412552 0  -3.734097395159253 -0.3261671578666079 0  -5.539652387691843 -0.8857154182585802 0  -4.395061924111849 1.563293728588296 0  0.2258327611651416 -0.08745142624872881 0  -3.774816634825771 0.8676973328379478 0  2.208484493569073 1.6256686312487 0  0.1309939514660535 -1.566169703482512 0  -5.551414360955331 0.9459842275970113 0  -4.04734138658365 -1.51163984963472 0  -4.947145019546805 -0.3299925153029702 0  4.320410447198621 0.6970857582435144 0  -4.707557346727139 -1.000565649857444 0  1.353711468973986 1.582551234446199 0  1.674156483558973 0.3266252271732694 0  -4.039105552973997 -0.4537604746027087 0  0.01051727619263377 -1.088858357362194 0  -0.2234942609176301 0.8619127912343982 0  -2.95903482691863 0.1219373374385197 0  -4.682467695920681 0.0804575682243254 0  5.535750224195656 -0.1525732643419722 0  -4.290083947414376 -0.0005258314026840717 0  1.136102562417988 0.7655312464039168 0  -2.816589394567214 0.9927597419785312 0  -2.645374456162409 -0.7645902451387543 0  4.18414576655837 1.624276131878667 0  0.7127337088822223 -0.9006358935856398 0  1.972418102153911 0.9727040774616764 0  -2.42199174813501 0.8591219219254587 0  -2.418604734200992 -0.8552987735117754 0  -5.573597213364169 -0.03612430678117123 0  2.024792870869397 0.05574071630590883 0  -1.578875191508968 0.861424470724936 0  -1.54706008231699 -0.8630049102346303 0  3.848662181064435 -1.569601980075533 0  -2.000000000003871 -0.9746445732264465 0  -1.99999999
[...]
<PointData  Vectors="f_22"> 
<DataArray  type="Float64"  Name="f_22"  NumberOfComponents="3" format="ascii">0.0000000000000000e+00 0.0000000000000000e+00 0.0000000000000000e+00  0.0000000000000000e+00 0.0000000000000000e+00 0.0000000000000000e+00  0.0000000000000000e+00 0.0000000000000000e+00 0.0000000000000000e+00  0.0000000000000000e+00 0.0000000000000000e+00 0.0000000000000000e+00  9.9999995741778469e-01 0.0000000000000000e+00 0.0000000000000000e+00  9.9999995741778469e-01 0.0000000000000000e+00 0.0000000000000000e+00  0.0000000000000000e+00 0.0000000000000000e+00 0.0000000000000000e+00  0.0000000000000000e+00 0.0000000000000000e+00 0.0000000000000000e+00  0.0000000000000000e+00 0.0000000000000000e+00 0.0000000000000000e+00  0.0000000000000000e+00 0.0000000000000000e+00 0.0000000000000000e+00  0.0000000000000000e+00 0.0000000000000000e+00 0.0000000000000000e+00  0.0000000000000000e+00 0.0000000000000000e+00 0.0000000000000000e+00  0.0000000000000000e+00 0.0000000000000000e+00 0.0000000000000000e+00  0.0000000000000000e+00 0.0000000000000000e+00 0.0000000000000000e+00  0.0000000000000000e+00 0.0000000000000000e+00 0.0000000000000000e+00  0.0000000000000000e+00 0.0000000000000000e+00 0.0000000000000000e+00  0.0000000000000000e+00 0.0000000000000000e+00 0.0000000000000000e+00  0.0000000000000000e+00 0.0000000000000000e+00 0.0000000000000000e+00  0.0000000000000000e+00 0.0000000000000000e+00 0.0000000000000000e+00  0.0000000000000000e+00 0.0000000000000000e+00 0.0000000000000000e+00  0.0000000000000000e+00 0.0000000000000000e+00 0.0000000000000000e+00  0.0000000000000000e+00 0.0000000000000000e+00 0.0000000000000000e+00  0.0000000000000000e+00 0.0000000000000000e+00 0.0000000000000000e+00  0.0000000000000000e+00 0.0000000000000000e+00 0.0000000000000000e+00  0.0000000000000000e+00 0.0000000000000000e+00 0.0000000000000000e+00  0.0000000000000000e+00 0.0000000000000000e+00 0.0000000000000000e+00  0.0000000000000000e+00 0.0000000000000000e+00 0.0000000000000000e+00  0.0000000000000000e+00 0.0000000000000000e+00 0.0000000000000000e+00  0.0000000000000000e+00 0.0000000000000000e+00 0.0000000000000000e+00  3.4515936181409218e-01 -2.7281861824106113e-04 0.0000000000000000e+00  6.0160560882671943e-01 -5.0376204580353614e-04 0.0000000000000000e+00  7.5260428526097123e-01 -4.6094098575613629e-04 0.0000000000000000e+00  8.0289874917237014e-01 -2.2744287366380652e-05 0.0000000000000000e+00  7.5255282536273171e-01 4.1565195654502088e-04 0.0000000000000000e+00  6.0162053585828434e-01 5.0584599237014092e-04 0.0000000000000000e+00  3.4528245177900796e-01 2.3763492129787132e-04 0.0000000000000000e+00  0.0000000000000000e+00 0.0000000000000000e+00 0.0000000000000000e+00  0.0000000000000000e+00 0.0000000000000000e+00 0.0000000000000000e+00  0.0000000000000000e+00 0.0000000000000000e+00 0.0000000000000000e+00  0.0000000000000000e+00 0.0000000000000000e+00 0.0000000000000000e+00  0.0000000000000000e+00 0.0000000000000000e+00 0.0000000000000000e+00  0.0000000000000000e+00 0.0000000000000000e+00 0.0000000000000000e+00  0.0000000000000000e+00 0.0000000000000000e+00 0.0000000000000000e+00  0.0000000000000000e+00 0.0000000000000000e+00 0.0000000000000000e+00  0.0000000000000000e+00 0.0000000000000000e+00 0.0000000000000000e+00  0.0000000000000000e+00 0.0000000000000000e+00 0.0000000000000000e+00  0.0000000000000000e+00 0.0000000000000000e+00 0.0000000000000000e+00  0.0000000000000000e+00 0.0000000000000000e+00 0.0000000000000000e+00  0.0000000000000000e+00 0.0000000000000000e+00 0.0000000000000000e+00  0.0000000000000000e+00 0.0000000000000000e+00 0.0000000000000000e+00  0.0000000000000000e+00 0.0000000000000000e+00 0.0000000000000000e+00  0.0000000000000000e+00 0.0000000000000000e+00 0.0000000000000000e+00  0.0000000000000000e+00 0.0000000000000000e+00 0.0000000000000000e+00  0.0000000000000000e+00 0.0000000000000000e+00 0.0000000000000000e+00  0.0000000000000000e+00 0.0000000000000000e+00 0.0000000000000000e+00  0.0000000000000000e+00 0.0000000000000000e+00 0.0000000000000000e+00  0.0000000000000000e+00 0.0000000000000000e+00 0.0000000000000000e+00  0.0000000000000000e+00 0.0000000000000000e+00 0.0000000000000000e+00  0.0000000000000000e+00 0.0000000000000000e+00 0.0000000000000000e+00  3.4397257053186370e-01 -5.6676830189179904e-04 0.0000000000000000e+00  6.0106435366091515e-01 -9.5267546181184120e-04 0.0000000000000000e+00  7.5326149811712872e-01 -7.6476658423766037e-04 0.0000000000000000e+00  8.0455309213273574e-01 -3.8269263637688516e-06 0.0000000000000000e+00  7.5393857806040332e-01 8.8836246414854411e-04 0.0000000000000000e+00  6.0139151474705510e-01 1.0184047652393117e-03 0.0000000000000000e+00  3.4399038073777949e-01 6.0950293989126751e-04 0.0000000000000000e+00  9.9999995741778469e-01 0.0000000000000000e+00 0.0000000000000000e+00  9.9999995741778469e-01 0.0000000000000000e+00 0.0000000000000000e+00  9.9999995741778469e-01 0.0000000000000000e+00 0.0000000000000000e+00  9.9999995741778469e-01 0.0000000000000000e+00 0.0000000000000000e+00  9.9999995741778469e-01 0.0000000000000000e+00 0.0000000000000000e+00  9.9999995741778469e-01 0.0000000000000000e+00 0.0000000000000000e+00  9.9999995741778469e-01 0.0000000000000000e+00 0.0000000000000000e+00  9.9999995741778469e-01 0.0000000000000000e+00 0.0000000000000000e+00  9.9999995741778469e-01 0.0000000000000000e+00 0.0000000000000000e+00  9.9999995741778469e-01 0.0000000000000000e+00 0.0000000000000000e+00  9.9999995741778469e-01 0.0000000000000000e+00 0.0000000000000000e+00  9.9999995741778469e-01 0.0000000000000000e+00 0.0000000000000000e+00  9.9999995741778469e-01 0.0000000000000000e+00 0.0000000000000000e+00  9.9999995741778469e-01 0.0000000000000000e+00 0.0000000000000000e+00  9.9999995741778469e-01 0.0000000000000000e+00 0.0000000000000000e+00  9.9999995741778469e-01 0.0000000000000000e+00 0.0000000000000000e+00  9.9999995741778469e-01 0.0000000000000000e+00 0.0000000000000000e+00  9.9999995741778469e-01 0.0000000000000000e+00 0.0000000000000000e+00  9.9999995741778469e-01 0.0000000000000000e+00 0.0000000000000000e+00  9.9999995741778469e-01 0.0000000000000000e+00 0.0000000000000000e+00  9.9999995741778469e-01 0.0000000000000000e+00 0.0000000000000000e+00  9.9999995741778469e-01 0.0000000000000000e+00 0.0000000000000000e+00  9.9999995741778469e-01 0.0000000000000000e+00 0.0000000000000000e+00  9.9999995741778469e-01 0.0000000000000000e+00 0.0000000000000000e+00  8.6686493675417453e-01 1.6355210445930069e-02 0.0000000000000000e+00  7.9784376466360851e-01 -5.3552126743094033e-03 0.0000000000000000e+00  7.1861433728353230e-01 3.1800786017479994e-02 0.0000000000000000e+00  7.6084483323984986e-01 -4.8528637206979329e-02 0.0000000000000000e+00  8.2100688146215572e-01 1.7158711551576053e-05 0.0000000000000000e+00  7.5495857053256554e-01 -4.6466799740179948e-02 0.0000000000000000e+00  7.8981348196113510e-01 9.9317209409617818e-04 0.0000000000000000e+00  8.1326195068600404e-01 5.3091169053058308e-02 0.0000000000000000e+00  4.5089868993762550e-01 -9.1571766600853699e-02 0.0000000000000000e+00  4.4240621445528122e-01 9.1394635866623997e-02 0.0000000000000000e+00  6.8599240497306835e-01 -2.4428429110110089e-02 0.0000000000000000e+00  7.0227275761739238e-01 4.2681591653856918e-03 0.0000000000000000e+00  4.3675250460692394e-01 9.1055310958464517e-02 0.0000000000000000e+00  3.3031915592390526e-01 -7.9739598787168076e-02 0.0000000000000000e+00  8.5725495447338973e-01 2.5147790305573240e-02 0.0000000000000000e+00  9.5484742510870890e-01 -1.3903653539370012e-02 0.0000000000000000e+00  6.9312013391209748e-01 1.5540793809426395e-02 0.0000000000000000e+00  6.6610359699739752e-01 -3.2232931176584610e-03 0.0000000000000000e+00  6.6875578424849724e-01 -1.1119322726455189e-03 0.0000000000000000e+00  6.5360772320902805e-01 3.9375698406817657e-03 0.0000000000000000e+00  4.8877496711843615e-01 -1.1912121929044998e-02 0.0000000000000000e+00  2.0271697602174218e-01 9.6571872995334457e-02 0.0000000000000000e+00  1.6000045145059250e-01 2.5685977817183077e-02 0.0000000000000000e+00  1.5789857601351676e-01 -2.4606052236764452e-02 0.0000000000000000e+00  2.0181738193695470e-01 -9.6392138385376955e-02 0.0000000000000000e+00  6.6249719706002608e-01 -2.9107053573389874e-03 0.0000000000000000e+00  6.1388283502512742e-01 -1.0084604830326822e-02 0.0000000000000000e+00  6.1672118618261118e-01 9.3766473065120105e-04 0.0000000000000000e+00  4.8596355080379033e-01 3.8866413388343866e-02 0.0000000000000000e+00  8.0476982327638591e-01 -3.8065897538376922e-04 0.0000000000000000e+00  7.5882955507476990e-01 1.0028825806071441e-01 0.0000000000000000e+00  8.4058453544089196e-01 -8.1754412153372147e-02 0.0000000000000000e+00  9.3823756608431230e-01 3.6947657666723352e-02 0.0000000000000000e+00  8.1101876612351664e-01 -7.8101222963839131e-02 0.0000000000000000e+00  4.8761711802011493e-01 9.5217094052602713e-03 0.0000000000000000e+00  8.3895382544376607e-01 -2.0680383442526424e-03 0.0000000000000000e+00  4.9964749908712747e-01 5.8968073990956363e-03 0.0000000000000000e+00  8.0379534033899225e-01 4.7041415699287830e-05 0.0000000000000000e+00  5.3222785622238911e-01 1.5280104746924249e-03 0.0000000000000000e+00  8.2195481765049339e-01 7.3586247061600760e-03 0.0000000000000000e+00  4.4444346726949774e-01 -3.2921435062964237e-02 0.0000000000000000e+00  4.2747912894781431e-01 2.6813045078102487e-02 0.0000000000000000e+00  4.9363335740181014e-01 -3.4170170237222762e-02 0.0000000000000000e+00  8.2291944679319695e-01 -2.5838641534161610e-02 0.0000000000000000e+00  8.1062552293884582e-01 4.4468911783457853e-04 0.0000000000000000e+00  4.5077166942405239e-01 1.6719484879458707e-01 0.0000000000000000e+00  5.0337268485422360e-01 8.6697355178466579e-02 0.0000000000000000e+00  2.6446873260806486e-01 5.0170223083143166e-02 0.0000000000000000e+00  4.8290289781480228e-01 -8.5462607009486199e-02 0.0000000000000000e+00  2.6458717490399991e-01 -4.9931044002746131e-02 0.0000000000000000e+00  4.5448636408683490e-01 -1.6725601129633888e-01 0.0000000000000000e+00  4.9376392861982388e-01 -1.2981470983539627e-03 0.0000000000000000e+00  4.0920527249713301e-01 5.8992494545897910e-02 0.0000000000000000e+00  3.1712105472609153e-01 -4.6954275072923976e-02 0.0000000000000000e+00  9.2175028886245902e-01 9.3730213433322000e-03 0.0000000000000000e+00  4.8832353578120435e-01 -3.9375371963735750e-03 0.0000000000000000e+00  6.9737971499284002e-01 -1.4768282779715644e-01 0.0000000000000000e+00  4.3922879126366299e-01 1.8756237095862101e-02 0.0000000000000000e+00  4.5357028429266583e-01 1.5147933794121033e-03 0.0000000000000000e+00  7.6726805541412002e-01 8.6883827396536717e-02 0.0000000000000000e+00  8.0087378770722106e-01 3.5458979940116296e-03 0.0000000000000000e+00  9.1530577787679090e-01 -1.4873675038723380e-02 0.0000000000000000e+00  9.8629093674881307e-01 8.5393840573288037e-03 0.0000000000000000e+00  7.5757154662772064e-01 -1.6260433514658603e-03 0.0000000000000000e+00  4.5164999144524970e-01 -4.8687248413709246e-04 0.0000000000000000e+00  9.5138648543181914e-01 -3.4463765688506433e-02 0.0000000000000000e+00  7.1363991961535700e-01 -2.0866372644829954e-02 0.0000000000000000e+00  4.1932895963227806e-01 -1.1279093147952885e-02 0.0000000000000000e+00  8.4314759063119171e-01 -1.3453825028278434e-02 0.0000000000000000e+00  6.7535505306910593e-01 1.5575132621881996e-01 0.0000000000000000e+00  8.3398695457479544e-01 1.2659419140786894e-02 0.0000000000000000e+00  9.5506150647225319e-01 1.2888697468721858e-02 0.0000000000000000e+00  3.9486100639224181e-01 -3.0909893189744269e-03 0.0000000000000000e+00  8.8008044494861637e-01 8.5929116106424647e-02 0.0000000000000000e+00  6.7756089106292727e-01 -7.8930175583584138e-03 0.0000000000000000e+00  7.4818371388250127e-01 -5.0432814363560591e-03 0.0000000000000000e+00  6.9186364235664266e-01 1.3839566578506105e-02 0.0000000000000000e+00  6.4106806523675497e-01 -7.4852909500830178e-02 0.0000000000000000e+00  3.9242607337734681e-01 6.9083988686244975e-03 0.0000000000000000e+00  7.6743083957145020e-01 -8.7453554191166447e-02 0.0000000000000000e+00  4.2980411532433749e-01 -1.1696872004419297e-03 0.0000000000000000e+00  4.2101353948415687e-01 1.2622124698889867e-01 0.0000000000000000e+00  4.6717554264461142e-01 -3.7268892856742918e-02 0.0000000000000000e+00  4.7022982642474698e-01 3.7686571235763147e-02 0.0000000000000000e+00  4.2075361838163972e-01 -1.2643765236035909e-01 0.0000000000000000e+00  8.6341561708636316e-01 -5.1567389280812850e-02 0.0000000000000000e+00  7.5478629033651445e-01 9.2899749062841808e-03 0.0000000000000000e+00  7.2166106255235929e-01 4.5003836341376224e-02 0.0000000000000000e+00  8.4882853349909249e-01 -9.6002263093436929e-03 0.0000000000000000e+00  7.6608835083783389e-01 1.2149482862084517e-03 0.0000000000000000e+00  7.4661263341389583e-01 -6.4731776602988667e-04 0.0000000000000000e+00  4.1396266984772317e-01 -1.7246931756523388e-03 0.0000000000000000e+00  6.3629428404125787e-01 -7.8205243049798465e-02 0.0000000000000000e+00  9.9176386643894543e-01 -6.5006338667736342e-03 0.0000000000000000e+00  6.4262948849910495e-01 3.2483049226009371e-02 0.0000000000000000e+00  4.0366332979716119e-01 2.5368335787435163e-03 0.0000000000000000e+00  4.3840467803849353e-01 -6.3369272068361147e-04 0.0000000000000000e+00  4.0811183782238969e-01 4.1895758119295197e-04 0.0000000000000000e+00  4.3078788137933421e-01 1.5960850406643004e-03 0.0000000000000000e+00  7.6278906800058699e-01 5.0281369754476141e-03 0.0000000000000000e+00  6.5752880524003521e-01 8.1039117128805724e-02 0.0000000000000000e+00  7.3109620816219401e-01 6.4054311254224433e-04 0.0000000000000000e+00  1.3475273251982289e-01 -4.1157597278260884e-02 0.0000000000000000e+00  5.7596876148552367e-01 5.5816098494510295e-02 0.0000000000000000e+00  7.1076777036209760e-01 -1.4004201091527160e-02 0.0000000000000000e+00  7.6472276069011569e-01 2.3068386395704720e-03 0.0000000000000000e+00  1.3441360477202327e-01 4.0879835557870309e-02 0.0000000000000000e+00  3.6275283101664085e-02 2.6799809570674321e-02 0.0000000000000000e+00  3.6301791991678281e-02 2.7607109474808111e-02 0.0000000000000000e+00  3.6272657988078404e-02 -2.7572035985685382e-02 0.0000000000000000e+00  5.5212224528183966e-02 -3.1251520756051664e-02 0.0000000000000000e+00  3.9236002533971392e-01 5.5543109427273697e-04 0.0000000000000000e+00  3.4039432101688527e-01 -1.3607968991458887e-02 0.0000000000000000e+00  9.0657060192416350e-01 -1.8798303045073354e-02 0.0000000000000000e+00  7.7123648433910874e-01 -4.0656381671212369e-03 0.0000000000000000e+00  9.5208136058266668e-01 3.1318853160991873e-02 0.0000000000000000e+00  2.4622753820444968e-01 -2.1945516395793167e-02 0.0000000000000000e+00  7.5555555218683690e-01 -1.1149712439601186e-03 0.0000000000000000e+00  3.4600401148111026e-01 2.3632755515972611e-03 0.0000000000000000e+00  7.8853625824528450e-01 -7.0650207694608527e-04 0.0000000000000000e+00  6.9332772194915437e-01 -1.7912758407585572e-01 0.0000000000000000e+00  8.1950330649418857e-01 7.7059255975026608e-02 0.0000000000000000e+00  8.5413516268513923e-01 -3.3994658740584514e-02 0.0000000000000000e+00  3.5415390129249563e-01 -3.6078629978574871e-03 0.0000000000000000e+00  7.6288795137119259e-01 9.5506237511676383e-04 0.0000000000000000e+00  1.4105027310296531e-01 3.2285850972035637e-02 0.0000000000000000e+00  7.8107176881877971e-01 -7.6366085708214635e-03 0.0000000000000000e+00  7.8957187249075189e-01 4.9548038313426919e-02 0.0000000000000000e+00  9.8020975496662865e-01 2.0098299514653264e-02 0.0000000000000000e+00  2.2505764201893436e-01 1.8657498219238178e-02 0.0000000000000000e+00  7.9776618390216569e-01 -1.1428845737634346e-02 0.0000000000000000e+00  9.0766145202797743e-01 -9.1721864475040049e-02 0.0000000000000000e+00  3.3739051698189976e-01 -1.1157698442683725e-02 0.0000000000000000e+00  8.0727744499673837e-01 -3.7292206097892951e-04 0.0000000000000000e+00  9.3993438550395925e-01 -4.3193971254088886e-02 0.0000000000000000e+00  8.3275289490681437e-01 1.4091642161918058e-01 0.0000000000000000e+00  9.3859642596422987e-01 4.4062339334146647e-02 0.0000000000000000e+00  8.3371472824812054e-01 -1.4479554422766466e-01 0.0000000000000000e+00  6.8312514911690692e-01 -4.2883241504597540e-02 0.0000000000000000e+00  1.2730995606904341e-01 -3.2694651071133889e-02 0.0000000000000000e+00  2.4993018158868993e-01 2.6835206077193335e-02 0.0000000000000000e+00  2.8924800668720807e-01 1.5864378102258006e-02 0.0000000000000000e+00  5.7364047535347928e-01 2.1611507314514871e-02 0.0000000000000000e+00  8.1423810138359520e-01 2.2365935177450030e-02 0.0000000000000000e+00  6.4517531474938750e-01 1.4414746709391722e-03 0.0000000000000000e+00  2.9661487330203928e-01 -3.9526620868081987e-03 0.0000000000000000e+00  9.0472154611626765e-01 -5.7280218528242589e-03 0.0000000000000000e+00  6.4967089912744391e-01 -3.4569010344577163e-02 0.0000000000000000e+00  2.5268036732396848e-01 2.1682778236243989e-03 0.0000000000000000e+00  2.2325866878586481e-01 -1.9548966149783225e-02 0.0000000000000000e+00  6.2238199187896959e-01 -1.3749329904761643e-03 0.0000000000000000e+00  3.2176747217523977e-01 9.0605516847920200e-03 0.0000000000000000e+00  7.8525448995667124e-01 2.3762337216865683e-03 0.0000000000000000e+00  7.0562829424012552e-01 1.6334763759634700e-03 0.0000000000000000e+00  5.9975001554245322e-01 6.3290037791879422e-03 0.0000000000000000e+00  2.6677988228859167e-01 5.6895007088804033e-03 0.0000000000000000e+00  8.0861829579000355e-01 8.7273118185828679e-03 0.0000000000000000e+00  7.7695317501269345e-01 1.6609613292452367e-02 0.0000000000000000e+00  5.1369515061264048e-01 -5.0899556560036169e-02 0.0000000000000000e+00  6.5958514492926690e-01 5.9577851227773426e-02 0.0000000000000000e+00  9.5872786826985856e-01 -3.2074915216073578e-02 0.0000000000000000e+00  8.0909564630473663e-01 -8.6173551545005349e-04 0.0000000000000000e+00  7.9864950581770244e-01 -2.2114931368751470e-04 0.0000000000000000e+00  8.1793761774970730e-01 3.0008392684711260e-05 0.0000000000000000e+00  6.8883178548879731e-01 2.3158385367384189e-02 0.0000000000000000e+00  5.3506674115242647e-01 -1.5002745958701080e-01 0.0000000000000000e+00  6.9952843244530161e-01 1.7774871292651487e-01 0.0000000000000000e+00  2.6305256092747198e-01 4.3895037527201763e-04 0.0000000000000000e+00  6.2881675249401714e-01 -3.2745538314662197e-02 0.0000000000000000e+00  6.0421401048695789e-01 1.0855194716339540e-02 0.0000000000000000e+00  6.3585228773777669e-01 -1.5447463571121112e-01 0.0000000000000000e+00  6.4190039274502086e-01 1.5205823205546373e-01 0.0000000000000000e+00  8.0467355786731709e-01 6.0021647433372010e-05 0.0000000000000000e+00  8.2802449060980243e-01 1.2049243232472669e-03 0.0000000000000000e+00  7.5888451985544048e-01 6.6248652866731747e-02 0.0000000000000000e+00  7.5123477654210347e-01 -7.0970861138011071e-02 0.0000000000000000e+00  2.9827441191660325e-01 -6.4472308831855986e-04 0.0000000000000000e+00  5.5505066207087495e-01 3.0989289445980742e-02 0.0000000000000000e+00  5.5503837898565334e-01 -3.1017423474463166e-02 0.0000000000000000e+00  3.3720130238315588e-01 -1.0726077332650019e-01 0.0000000000000000e+00  6.2416258120413026e-01 2.7115374265785056e-03 0.0000000000000000e+00  5.6562459582079816e-01 1.0030502689714559e-01 0.0000000000000000e+00  8.7927846582160518e-01 -2.2013425208052858e-03 0.0000000000000000e+00  6.0673505090598467e-01 5.8499349212737120e-04 0.0000000000000000e+00  6.2816198793514255e-01 -6.1575943131302524e-04 0.0000000000000000e+00  6.0617097029141709e-01 5.2634602590520829e-03 0.0000000000000000e+00  2.7027871942939385e-01 7.3848887541555969e-02 0.0000000000000000e+00  5.3456898588982227e-01 -9.9786671128827539e-02 0.0000000000000000e+00  6.5041640734087647e-01 -7.1588810715009551e-03 0.0000000000000000e+00  6.5858388652298550e-01 -1.5567659761314967e-03 0.0000000000000000e+00  2.6406752611725903e-01 -3.0347875548177917e-04 0.0000000000000000e+00  2.5699895402621398e-01 -3.5491601693493553e-03 0.0000000000000000e+00  8.3042498089072592e-01 -3.1652927270010171e-02 0.