<?xml version="1.0"?>
<VTKFile type="UnstructuredGrid"  version="0.1"  >
<UnstructuredGrid>
<Piece  NumberOfPoints="622" NumberOfCells="1116">
<Points>
<DataArray  type="Float64"  NumberOfComponents="3"  format="ascii">-6 -2 0  -6 2 0  6 2 0  6 -2 0  -2.8 0 0  -1.2 0 0  -5.500000000001853 -2 0  -5.000000000003705 -2 0  -4.500000000005556 -2 0  -4.000000000007409 -2 0  -3.50000000000926 -2 0  -3.000000000011112 -2 0  -2.500000000012963 -2 0  -2.000000000014814 -2 0  -1.500000000016665 -2 0  -1.000000000018516 -2 0  -0.5000000000203677 -2 0  -2.204547655537681e-11 -2 0  0.4999999999796305 -2 0  0.9999999999814779 -2 0  1.499999999983327 -2 0  1.999999999985175 -2 0  2.499999999987029 -2 0  2.999999999988882 -2 0  3.499999999990735 -2 0  3.999999999992589 -2 0  4.49999999999444 -2 0  4.999999999996293 -2 0  5.499999999998147 -2 0  6 -1.500000000001387 0  6 -1.000000000002774 0  6 -0.5000000000041616 0  6 -5.505595979116151e-12 0  6 0.4999999999958384 0  6 0.9999999999972258 0  6 1.499999999998613 0  5.500000000001853 2 0  5.000000000003705 2 0  4.500000000005556 2 0  4.000000000007409 2 0  3.50000000000926 2 0  3.000000000011112 2 0  2.500000000012963 2 0  2.000000000014814 2 0  1.500000000016665 2 0  1.000000000018516 2 0  0.5000000000203677 2 0  2.204547655537681e-11 2 0  -0.4999999999796305 2 0  -0.9999999999814779 2 0  -1.499999999983327 2 0  -1.999999999985175 2 0  -2.499999999987029 2 0  -2.999999999988882 2 0  -3.499999999990735 2 0  -3.999999999992589 2 0  -4.49999999999444 2 0  -4.999999999996293 2 0  -5.499999999998147 2 0  -6 1.500000000001387 0  -6 1.000000000002774 0  -6 0.5000000000041616 0  -6 5.505595979116151e-12 0  -6 -0.4999999999958384 0  -6 -0.9999999999972258 0  -6 -1.499999999998613 0  -2.796147781337886 -0.07841371226233997 0  -2.784628224322852 -0.1560722576115546 0  -2.765552268586196 -0.2322277418021561 0  -2.739103626009626 -0.30614674589063 0  -2.705537011479457 -0.3771173894593519 0  -2.665175689843037 -0.4444561864141836 0  -2.618408362691456 -0.5075146273293722 0  -2.565685424950688 -0.5656854249477874 0  -2.507514627332613 -0.6184083626887972 0  -2.444456186417533 -0.6651756898407991 0  -2.377117389462776 -0.7055370114776264 0  -2.306146745894456 -0.7391036260080417 0  -2.232227741806235 -0.7655522685849585 0  -2.15607225761588 -0.784628224321992 0  -2.078413712266957 -0.7961477813374315 0  -2.000000000003407 -0.7999999999999998 0  -1.921586287739523 -0.7961477813380696 0  -1.843927742389945 -0.7846282243231506 0  -1.767772258198879 -0.7655522685865098 0  -1.693853254109962 -0.7391036260098718 0  -1.622882610540873 -0.7055370114795768 0  -1.555543813585629 -0.6651756898429115 0  -1.49248537267008 -0.6184083626910072 0  -1.434314575051535 -0.5656854249500112 0  -1.381591637310384 -0.5075146273316149 0  -1.334824310158267 -0.4444561864161359 0  -1.294462988521423 -0.3771173894609975 0  -1.260896373990956 -0.3061467458920351 0  -1.234447731414138 -0.2322277418032578 0  -1.215371775677287 -0.156072257612254 0  -1.203852218662147 -0.07841371226267954 0  -1.203852218662115 0.07841371226235888 0  -1.215371775677132 0.156072257611478 0  -1.234447731413795 0.232227741802127 0  -1.260896373990353 0.3061467458905811 0  -1.294462988520456 0.3771173894591898 0  -1.334824310156812 0.444456186413959 0  -1.381591637308413 0.5075146273292139 0  -1.434314575049147 0.5656854249476236 0  -1.492485372667197 0.6184083626886415 0  -1.555543813582104 0.6651756898405565 0  -1.62288261053673 0.7055370114773629 0  -1.693853254105125 0.7391036260078683 0  -1.767772258193396 0.7655522685848468 0  -1.84392774238373 0.7846282243219146 0  -1.921586287732977 0.7961477813374253 0  -1.999999999996558 0.8 0  -2.078413712260516 0.7961477813380661 0  -2.156072257610207 0.7846282243231205 0  -2.232227741801178 0.7655522685864928 0  -2.306146745890059 0.7391036260098632 0  -2.377117389459098 0.7055370114795929 0  -2.444456186414405 0.6651756898428894 0  -2.50751462732998 0.6184083626909587 0  -2.565685424948549 0.5656854249499272 0  -2.61840836268981 0.5075146273313792 0  -2.665175689841831 0.4444561864159886 0  -2.705537011478692 0.3771173894607835 0  -2.739103626009108 0.3061467458918818 0  -2.76555226858589 0.2322277418031643 0  -2.784628224322724 0.1560722576122001 0  -2.796147781337853 0.07841371226267957 0  0.6720367661319522 0.1312687487860887 0  -4.389489086394485 0.3544472233398538 0  -3.816221554046232 -0.6097988664512611 0  -3.552726516474419 0.9342959806851625 0  -0.2536610443052337 0.8162373554653355 0  -0.1843238977799138 -0.6649951410982842 0  -3.613359951620445 0.1086570650978273 0  -3.146954163409593 -1.074378179335012 0  -0.4255266515582625 0.07734891565364931 0  -0.9413731612925856 1.168014724254929 0  -2.947764053183577 1.200029094390044 0  -0.8319852757411681 -1.058626838707328 0  2.675418990747819 -1.137325591670363e-12 0  -2.602010642259726 -1.287560129290477 0  -2.334401622060699 1.335006108940604 0  -1.524718496628401 1.32890816230333 0  -1.369813829148039 -1.26145150481762 0  -3.294065651892671 -0.4630240940010318 0  -2.072749204569071 -1.388981302138359 0  -0.7546165313921411 0.5601792161340381 0  -3.224879719581335 0.4382689715877901 0  -0.7073137361349826 -0.4625305410752652 0  4.326242945813966 0.3262429458150917 0  -3.187880061217201 0.07437712177460168 0  -2.94792024259867 0.7030255657465158 0  -2.678809277907896 0.9152683582887104 0  -4.911626141576894 -0.5700186648601188 0  -2.980647654587299 -0.5685006168686053 0  -2.769438919323564 -0.8202775213660614 0  -1.936950121013948 1.220669938589229 0  -0.8971643766260747 0.2762459428874499 0  -0.8760878018253068 -0.06836412137772707 0  -1.086827485441145 0.6772548942594016 0  -1.31355927028917 0.8808768148414213 0  -1.034266382739347 -0.5912381576649568 0  -1.241594139118264 -0.836771920085274 0  1.667161185638911 -0.6367996576268693 0  1.778189842800902 0.7191719841256095 0  -3.065106827511819 -0.266795371500425 0  3.714311277362231 -0.7275465302492842 0  -1.728329421201519 -1.09954751473283 0  4.870629493137888 -0.7325040699186681 0  -3.024707894719303 0.2567561910603656 0  -4.375540207252226 1.228935704312058 0  -2.272077148001781 -1.086192861256262 0  3.351408248797803 0.9175227128129597 0  -5.141847419540732 0.8091901960109126 0  0.5769368286199241 1.111816231125821 0  0.7411482978492124 -1.079569101289617 0  -1.074013749991219 0.430231207546053 0  -1.04664573441257 -0.3358382377487088 0  -2.439195336951085 0.9224778883059374 0  -2.902607676587358 0.4360473765597399 0  -1.629450174302152 1.035617385691805 0  -2.146859933125513 1.032375363966426 0  2.587625196444542 -0.9999926061845814 0  -2.529286802957126 -0.8830616815739111 0  -1.493798157676768 -0.8794705728517196 0  -1.932158132383022 -1.026681566564148 0  -4.09956359341904 -0.1372485582942864 0  5.055802064425553 1.050933510837308 0  -4.413659685984891 -1.207626391697488 0  -4.961411026474009 0.1201902955685026 0  -3.771151641156835 -1.303594976371997 0  -3.001321503506133 -0.04919177107285733 0  -3.881733605683001 0.5124517634812003 0  -0.1971627317996802 -1.336445372382849 0  -2.742825060181767 0.6732573903735507 0  2.520439429199979 1.129372838786189 0  -1.026326428668429 0.1384273198437734 0  -2.779290004861729 -0.5844691722665721 0  -2.895095740820851 -0.4261289730972082 0  -1.275682076193407 0.6630703172777138 0  0.1045291701958869 0.3433373435296472 0  5.175560481258801 0.0608563229178163 0  -1.211574424201636 -0.5847362589868093 0  -1.85847006217035 1.007917631940711 0  4.152535916385823 1.131901130662082 0  -1.04878257200685 -0.1253529988863012 0  1.432836501626023 0.05634449574318775 0  3.560672936003603 0.01188897172456759 0  -3.351823698389408 -0.1821329582635926 0  -5.145153363200735 -1.259166339382508 0  0.03473693330309885 -0.1724947236036572 0  -4.377830921337186 -0.6172564090242229 0  -0.3943750728122595 1.410897156959435 0  -1.661073679471639 -0.9342065000197183 0  -1.49086536677686 0.8331714487926741 0  -2.584486130952032 0.7871482690034864 0  4.270535884593893 -1.259607924744415 0  -1.757417028085795 -1.505182186951191 0  -3.430586920998477 1.425579221231371 0  -2.917598827418652 -0.2298465409534677 0  -2.328978331116049 -0.9300959620317677 0  -2.148543000691344 -0.9751580214451921 0  1.002654111360038 -0.4521702885594788 0  -4.628651824080903 -0.1127998710567241 0  -2.948904386702482 0.1555943115410545 0  0.4165242577134774 -0.5629432649478633 0  -3.698137692471105 -0.3173027948676715 0  -3.491400684461791 -0.7926319721650269 0  -0.3844454817728994 0.4680628696134375 0  -3.207830713508533 0.9778749990559993 0  3.229909751065535 -1.326302454776001 0  5.330007715336748 -1.312905173261894 0  -2.649214054100534 -0.713314536278899 0  1.342022964818772 -1.328315248672686 0  -2.556460939068198 1.202372762828344 0  -0.3497819755044588 -0.3080427614060888 0  -4.928440909495523 1.387622767511967 0  1.309170811945155 1.337467055109531 0  -1.352031940181449 -0.7151198948590243 0  -0.6132855723904642 0.9519045895123004 0  4.266838388406324 -0.3707357390867402 0  -3.834389788310238 1.371594798941152 0  -1.187890214580146 0.4851427123079557 0  -1.109118888029193 0.3185947354467283 0  0.1837819401738013 1.234799661476361 0  1.108165254659559 0.6237223548284967 0  -0.5266600156584522 -0.8113991260886402 0  -4.643822083543982 0.7834094684931707 0  -1.146235204666366 -0.4027330721405781 0  2.049029845992713 -0.2664662499985428 0  2.002665761665898 -1.328912351029848 0  -1.678783505586872 0.8978832065736417 0  -2.049499525232052 0.9483890761590005 0  -2.229972236535132 0.9181006323151361 0  -3.033763529945482 -1.54240494280775 0  -3.562344364746847 0.5622550957224539 0  -5.524396842903405 -0.2709714867672603 0  -0.9710982764034376 -1.549038578476423 0  3.058819320130555 -0.5375106252795963 0  -4.170365230099585 0.7342553699229977 0  -1.045878746461381 -8.187420622554697e-05 0  -1.864822945411764 -0.9219031104673102 0  -0.6251005091687033 -0.2120650512195049 0  2.317562622406059 0.4886417799113238 0  -0.6674371191466613 0.1483993095055008 0  -2.705757882979874 1.609712312948224 0  
[...]
<PointData  Vectors="f_22"> 
<DataArray  type="Float64"  Name="f_22"  NumberOfComponents="3" format="ascii">0.0000000000000000e+00 0.0000000000000000e+00 0.0000000000000000e+00  0.0000000000000000e+00 0.0000000000000000e+00 0.0000000000000000e+00  0.0000000000000000e+00 0.0000000000000000e+00 0.0000000000000000e+00  0.0000000000000000e+00 0.0000000000000000e+00 0.0000000000000000e+00  9.9999998000884083e-01 0.0000000000000000e+00 0.0000000000000000e+00  9.9999998000884083e-01 0.0000000000000000e+00 0.0000000000000000e+00  0.0000000000000000e+00 0.0000000000000000e+00 0.0000000000000000e+00  0.0000000000000000e+00 0.0000000000000000e+00 0.0000000000000000e+00  0.0000000000000000e+00 0.0000000000000000e+00 0.0000000000000000e+00  0.0000000000000000e+00 0.0000000000000000e+00 0.0000000000000000e+00  0.0000000000000000e+00 0.0000000000000000e+00 0.0000000000000000e+00  0.0000000000000000e+00 0.0000000000000000e+00 0.0000000000000000e+00  0.0000000000000000e+00 0.0000000000000000e+00 0.0000000000000000e+00  0.0000000000000000e+00 0.0000000000000000e+00 0.0000000000000000e+00  0.0000000000000000e+00 0.0000000000000000e+00 0.0000000000000000e+00  0.0000000000000000e+00 0.0000000000000000e+00 0.0000000000000000e+00  0.0000000000000000e+00 0.0000000000000000e+00 0.0000000000000000e+00  0.0000000000000000e+00 0.0000000000000000e+00 0.0000000000000000e+00  0.0000000000000000e+00 0.0000000000000000e+00 0.0000000000000000e+00  0.0000000000000000e+00 0.0000000000000000e+00 0.0000000000000000e+00  0.0000000000000000e+00 0.0000000000000000e+00 0.0000000000000000e+00  0.0000000000000000e+00 0.0000000000000000e+00 0.0000000000000000e+00  0.0000000000000000e+00 0.0000000000000000e+00 0.0000000000000000e+00  0.0000000000000000e+00 0.0000000000000000e+00 0.0000000000000000e+00  0.0000000000000000e+00 0.0000000000000000e+00 0.0000000000000000e+00  0.0000000000000000e+00 0.0000000000000000e+00 0.0000000000000000e+00  0.0000000000000000e+00 0.0000000000000000e+00 0.0000000000000000e+00  0.0000000000000000e+00 0.0000000000000000e+00 0.0000000000000000e+00  0.0000000000000000e+00 0.0000000000000000e+00 0.0000000000000000e+00  1.7755810962705956e-01 -1.4154001522960130e-04 0.0000000000000000e+00  1.8075548525384200e-01 2.1712192550219216e-04 0.0000000000000000e+00  1.8077858464797594e-01 3.3897509071404081e-05 0.0000000000000000e+00  1.8074403099541794e-01 8.3570285421300934e-06 0.0000000000000000e+00  1.8068871933928707e-01 2.7886659700376952e-06 0.0000000000000000e+00  1.8078547986980092e-01 5.8723203437529802e-05 0.0000000000000000e+00  1.7679535027479346e-01 -1.3826548342355888e-05 0.0000000000000000e+00  0.0000000000000000e+00 0.0000000000000000e+00 0.0000000000000000e+00  0.0000000000000000e+00 0.0000000000000000e+00 0.0000000000000000e+00  0.0000000000000000e+00 0.0000000000000000e+00 0.0000000000000000e+00  0.0000000000000000e+00 0.0000000000000000e+00 0.0000000000000000e+00  0.0000000000000000e+00 0.0000000000000000e+00 0.0000000000000000e+00  0.0000000000000000e+00 0.0000000000000000e+00 0.0000000000000000e+00  0.0000000000000000e+00 0.0000000000000000e+00 0.0000000000000000e+00  0.0000000000000000e+00 0.0000000000000000e+00 0.0000000000000000e+00  0.0000000000000000e+00 0.0000000000000000e+00 0.0000000000000000e+00  0.0000000000000000e+00 0.0000000000000000e+00 0.0000000000000000e+00  0.0000000000000000e+00 0.0000000000000000e+00 0.0000000000000000e+00  0.0000000000000000e+00 0.0000000000000000e+00 0.0000000000000000e+00  0.0000000000000000e+00 0.0000000000000000e+00 0.0000000000000000e+00  0.0000000000000000e+00 0.0000000000000000e+00 0.0000000000000000e+00  0.0000000000000000e+00 0.0000000000000000e+00 0.0000000000000000e+00  0.0000000000000000e+00 0.0000000000000000e+00 0.0000000000000000e+00  0.0000000000000000e+00 0.0000000000000000e+00 0.0000000000000000e+00  0.0000000000000000e+00 0.0000000000000000e+00 0.0000000000000000e+00  0.0000000000000000e+00 0.0000000000000000e+00 0.0000000000000000e+00  0.0000000000000000e+00 0.0000000000000000e+00 0.0000000000000000e+00  0.0000000000000000e+00 0.0000000000000000e+00 0.0000000000000000e+00  0.0000000000000000e+00 0.0000000000000000e+00 0.0000000000000000e+00  0.0000000000000000e+00 0.0000000000000000e+00 0.0000000000000000e+00  1.7582201327166247e-01 -5.8045626283974273e-04 0.0000000000000000e+00  1.7917812565372057e-01 -7.5617972425428290e-04 0.0000000000000000e+00  1.8460819374675505e-01 -8.0543537289983478e-04 0.0000000000000000e+00  1.8735762285232882e-01 3.6780935684995147e-04 0.0000000000000000e+00  1.8539276601005641e-01 5.0449917570297945e-04 0.0000000000000000e+00  1.7984300328730746e-01 8.7347314366699642e-04 0.0000000000000000e+00  1.7558102755516070e-01 6.0610888133509925e-04 0.0000000000000000e+00  9.9999998000884083e-01 0.0000000000000000e+00 0.0000000000000000e+00  9.9999998000884083e-01 0.0000000000000000e+00 0.0000000000000000e+00  9.9999998000884083e-01 0.0000000000000000e+00 0.0000000000000000e+00  9.9999998000884083e-01 0.0000000000000000e+00 0.0000000000000000e+00  9.9999998000884083e-01 0.0000000000000000e+00 0.0000000000000000e+00  9.9999998000884083e-01 0.0000000000000000e+00 0.0000000000000000e+00  9.9999998000884083e-01 0.0000000000000000e+00 0.0000000000000000e+00  9.9999998000884083e-01 0.0000000000000000e+00 0.0000000000000000e+00  9.9999998000884083e-01 0.0000000000000000e+00 0.0000000000000000e+00  9.9999998000884083e-01 0.0000000000000000e+00 0.0000000000000000e+00  9.9999998000884083e-01 0.0000000000000000e+00 0.0000000000000000e+00  9.9999998000884083e-01 0.0000000000000000e+00 0.0000000000000000e+00  9.9999998000884083e-01 0.0000000000000000e+00 0.0000000000000000e+00  9.9999998000884083e-01 0.0000000000000000e+00 0.0000000000000000e+00  9.9999998000884083e-01 0.0000000000000000e+00 0.0000000000000000e+00  9.9999998000884083e-01 0.0000000000000000e+00 0.0000000000000000e+00  9.9999998000884083e-01 0.0000000000000000e+00 0.0000000000000000e+00  9.9999998000884083e-01 0.0000000000000000e+00 0.0000000000000000e+00  9.9999998000884083e-01 0.0000000000000000e+00 0.0000000000000000e+00  9.9999998000884083e-01 0.0000000000000000e+00 0.0000000000000000e+00  9.9999998000884083e-01 0.0000000000000000e+00 0.0000000000000000e+00  9.9999998000884083e-01 0.0000000000000000e+00 0.0000000000000000e+00  9.9999998000884083e-01 0.0000000000000000e+00 0.0000000000000000e+00  9.9999998000884083e-01 0.0000000000000000e+00 0.0000000000000000e+00  9.9999998000884083e-01 0.0000000000000000e+00 0.0000000000000000e+00  9.9999998000884083e-01 0.0000000000000000e+00 0.0000000000000000e+00  9.9999998000884083e-01 0.0000000000000000e+00 0.0000000000000000e+00  9.9999998000884083e-01 0.0000000000000000e+00 0.0000000000000000e+00  9.9999998000884083e-01 0.0000000000000000e+00 0.0000000000000000e+00  9.9999998000884083e-01 0.0000000000000000e+00 0.0000000000000000e+00  9.9999998000884083e-01 0.0000000000000000e+00 0.0000000000000000e+00  9.9999998000884083e-01 0.0000000000000000e+00 0.0000000000000000e+00  9.9999998000884083e-01 0.0000000000000000e+00 0.0000000000000000e+00  9.9999998000884083e-01 0.0000000000000000e+00 0.0000000000000000e+00  9.9999998000884083e-01 0.0000000000000000e+00 0.0000000000000000e+00  9.9999998000884083e-01 0.0000000000000000e+00 0.0000000000000000e+00  9.9999998000884083e-01 0.0000000000000000e+00 0.0000000000000000e+00  9.9999998000884083e-01 0.0000000000000000e+00 0.0000000000000000e+00  9.9999998000884083e-01 0.0000000000000000e+00 0.0000000000000000e+00  9.9999998000884083e-01 0.0000000000000000e+00 0.0000000000000000e+00  9.9999998000884083e-01 0.0000000000000000e+00 0.0000000000000000e+00  9.9999998000884083e-01 0.0000000000000000e+00 0.0000000000000000e+00  9.9999998000884083e-01 0.0000000000000000e+00 0.0000000000000000e+00  9.9999998000884083e-01 0.0000000000000000e+00 0.0000000000000000e+00  9.9999998000884083e-01 0.0000000000000000e+00 0.0000000000000000e+00  9.9999998000884083e-01 0.0000000000000000e+00 0.0000000000000000e+00  9.9999998000884083e-01 0.0000000000000000e+00 0.0000000000000000e+00  9.9999998000884083e-01 0.0000000000000000e+00 0.0000000000000000e+00  9.9999998000884083e-01 0.0000000000000000e+00 0.0000000000000000e+00  9.9999998000884083e-01 0.0000000000000000e+00 0.0000000000000000e+00  9.9999998000884083e-01 0.0000000000000000e+00 0.0000000000000000e+00  9.9999998000884083e-01 0.0000000000000000e+00 0.0000000000000000e+00  9.9999998000884083e-01 0.0000000000000000e+00 0.0000000000000000e+00  9.9999998000884083e-01 0.0000000000000000e+00 0.0000000000000000e+00  9.9999998000884083e-01 0.0000000000000000e+00 0.0000000000000000e+00  9.9999998000884083e-01 0.0000000000000000e+00 0.0000000000000000e+00  9.9999998000884083e-01 0.0000000000000000e+00 0.0000000000000000e+00  9.9999998000884083e-01 0.0000000000000000e+00 0.0000000000000000e+00  9.9999998000884083e-01 0.0000000000000000e+00 0.0000000000000000e+00  9.9999998000884083e-01 0.0000000000000000e+00 0.0000000000000000e+00  9.9999998000884083e-01 0.0000000000000000e+00 0.0000000000000000e+00  9.9999998000884083e-01 0.0000000000000000e+00 0.0000000000000000e+00  2.8579267843532596e-01 2.4500016477147619e-02 0.0000000000000000e+00  2.0842589081672791e-01 -1.9209139717021529e-02 0.0000000000000000e+00  2.2133512792815718e-01 8.1804779732085650e-02 0.0000000000000000e+00  1.5959878286183482e-01 -1.3419599382507416e-01 0.0000000000000000e+00  2.1202106172321544e-01 3.8107124867344794e-01 0.0000000000000000e+00  3.3385316633679918e-01 -3.1830995049232669e-01 0.0000000000000000e+00  3.1647215415535290e-01 -2.8390110111309878e-02 0.0000000000000000e+00  5.6221596089537890e-02 2.2660221175420375e-01 0.0000000000000000e+00  7.5092180961823551e-01 3.5603266595646943e-02 0.0000000000000000e+00  -2.6826362755352906e-01 3.7510957560473446e-01 0.0000000000000000e+00  -5.8702681527145473e-02 -2.3890039424871903e-01 0.0000000000000000e+00  -2.3280342396352311e-02 -4.0878465440470824e-01 0.0000000000000000e+00  1.8402258033986937e-01 3.4443809825921161e-05 0.0000000000000000e+00  -2.6455501522847646e-01 2.9422121635225235e-01 0.0000000000000000e+00  -4.5118818394298865e-01 -2.9819096271248108e-01 0.0000000000000000e+00  -7.4205228166061599e-01 -2.6093892733050940e-02 0.0000000000000000e+00  -6.4403092221388325e-01 -1.3683887694059355e-01 0.0000000000000000e+00  3.2566368890562686e-01 1.9672445240900538e-01 0.0000000000000000e+00  -5.5858481239359292e-01 2.6620959524451898e-01 0.0000000000000000e+00  6.8340409073800523e-01 2.3144081514800180e-01 0.0000000000000000e+00  3.5365187989548202e-01 -2.2282822221042900e-01 0.0000000000000000e+00  7.3685242331466072e-01 -1.9270766424685529e-01 0.0000000000000000e+00  1.8093237165812251e-01 8.1186045952903543e-05 0.0000000000000000e+00  5.0206565486152166e-01 -5.1714292859658124e-02 0.0000000000000000e+00  1.9095059293881056e-01 -4.2263192380973275e-01 0.0000000000000000e+00  -8.8823258425975674e-02 -5.0073356384595513e-01 0.0000000000000000e+00  1.8879353610752470e-01 1.0668011769863116e-02 0.0000000000000000e+00  3.1161568179185389e-01 4.0610874600062147e-01 0.0000000000000000e+00  3.1366924989391934e-02 5.1417236749604167e-01 0.0000000000000000e+00  -6.1115282872084853e-01 -3.0375084632995858e-01 0.0000000000000000e+00  9.0566104317915852e-01 8.9629446173346311e-02 0.0000000000000000e+00  9.3567284951482710e-01 -2.2952267326652266e-02 0.0000000000000000e+00  7.3527987062795486e-01 2.1249944701944301e-01 0.0000000000000000e+00  4.8792600104261191e-01 2.2765820863416936e-01 0.0000000000000000e+00  7.8711124427025769e-01 -1.8710748346759756e-01 0.0000000000000000e+00  5.8045732299211361e-01 -2.4486589391407235e-01 0.0000000000000000e+00  1.8878963857213640e-01 -1.6988213084223491e-02 0.0000000000000000e+00  1.8603855048734347e-01 1.4358731938786354e-02 0.0000000000000000e+00  5.2105742186464155e-01 2.3373123708852911e-01 0.0000000000000000e+00  1.8095241861389916e-01 -5.0991227753913930e-04 0.0000000000000000e+00  -4.4893846134138743e-01 1.8454762005350442e-01 0.0000000000000000e+00  1.8075708803526616e-01 -2.2092492751130553e-05 0.0000000000000000e+00  5.5575545073708965e-01 -2.5240271669906000e-01 0.0000000000000000e+00  1.6309194319381878e-01 -2.7149106495311208e-02 0.0000000000000000e+00  -4.4143275224995504e-01 4.4556599111902029e-01 0.0000000000000000e+00  1.8043314794075621e-01 9.5325987822775433e-04 0.0000000000000000e+00  1.8257518062423270e-01 -7.6226275993082748e-03 0.0000000000000000e+00  1.3940940163201487e-01 1.1181868206805909e-01 0.0000000000000000e+00  1.5321746007480583e-01 -8.4809171837128744e-02 0.0000000000000000e+00  9.0865402037320941e-01 1.0560467084554158e-01 0.0000000000000000e+00  9.3673309751006828e-01 -8.0575934229787191e-02 0.0000000000000000e+00  -2.6527262595736795e-01 -5.6230780574475303e-01 0.0000000000000000e+00  4.6633952944327139e-01 -4.3490483418459752e-01 0.0000000000000000e+00  -1.9894917245354934e-01 -5.6572669344477237e-02 0.0000000000000000e+00  -4.5902420794626336e-01 -4.1807466170343899e-01 0.0000000000000000e+00  1.8023503762963036e-01 -3.8851283815412130e-03 0.0000000000000000e+00  -1.6043710783022444e-01 5.7390675314836825e-01 0.0000000000000000e+00  5.1408233414171300e-01 -9.8897511806005617e-02 0.0000000000000000e+00  -3.7276286450814672e-01 2.8846531626633992e-01 0.0000000000000000e+00  2.3595627610477640e-01 1.3802625303419802e-02 0.0000000000000000e+00  1.8035008467919886e-01 2.0746071808425804e-04 0.0000000000000000e+00  1.6491608904163574e-01 2.6451363187574278e-02 0.0000000000000000e+00  1.9394964143431490e-01 -2.2385990224974058e-03 0.0000000000000000e+00  1.2220929332115847e-01 6.4644908187092495e-02 0.0000000000000000e+00  6.7588392069211189e-01 4.4576463648174879e-02 0.0000000000000000e+00  2.2974231502406914e-01 -6.5303875624075011e-02 0.0000000000000000e+00  -8.9512775317682383e-02 -2.3121190616938891e-01 0.0000000000000000e+00  1.6606959740748339e-01 -5.9578644921091961e-01 0.0000000000000000e+00  1.7742663070132189e-01 4.5141197930735327e-03 0.0000000000000000e+00  9.7209317909040716e-01 3.0074657409049955e-02 0.0000000000000000e+00  2.8750816285874126e-01 5.8506983212079910e-01 0.0000000000000000e+00  4.8772653581496606e-01 4.2821764643982124e-01 0.0000000000000000e+00  8.5385300946584830e-01 1.3056755500089159e-01 0.0000000000000000e+00  4.1588768723040032e-01 1.6805350200971400e-01 0.0000000000000000e+00  1.8076254224224445e-01 9.7305565820346808e-06 0.0000000000000000e+00  8.7820267773300231e-01 -1.2036110052120920e-01 0.0000000000000000e+00  -2.7645079360151248e-01 -2.2519910694141546e-01 0.0000000000000000e+00  1.7985097828358237e-01 2.4072011514667552e-04 0.0000000000000000e+00  9.7843743863409449e-01 -2.5498602765179415e-02 0.0000000000000000e+00  2.0973064252375651e-01 2.5576802678202704e-03 0.0000000000000000e+00  1.8153683479112301e-01 -4.2752031277479033e-05 0.0000000000000000e+00  3.9658562553717802e-01 8.2418898753028477e-02 0.0000000000000000e+00  1.7462807289439131e-01 6.7246006219605532e-03 0.0000000000000000e+00  5.0676130853167523e-01 -8.7786184772080472e-02 0.0000000000000000e+00  1.9715703337496690e-01 2.9614539266457546e-02 0.0000000000000000e+00  -1.8280649452775677e-01 2.4362652981669145e-01 0.0000000000000000e+00  1.9056306011253510e-01 1.9093786246039832e-02 0.0000000000000000e+00  6.9404961747913563e-01 1.0463713176581510e-01 0.0000000000000000e+00  -7.0232583480436109e-02 -6.4841963196169361e-01 0.0000000000000000e+00  1.7940987527987015e-01 -1.7224724100605197e-04 0.0000000000000000e+00  -6.9238037657759877e-01 1.5395206155465865e-01 0.0000000000000000e+00  5.7136279315335152e-02 -7.8647494691282988e-02 0.0000000000000000e+00  6.6999205461177058e-01 2.9893759371714679e-01 0.0000000000000000e+00  -3.5110642330815794e-01 5.3908006628193039e-01 0.0000000000000000e+00  -4.1155088867517609e-01 4.2435277187275816e-01 0.0000000000000000e+00  2.2141738574697697e-01 -4.2763911126355664e-02 0.0000000000000000e+00  2.0301005456614732e-01 4.4314726014548222e-03 0.0000000000000000e+00  6.9648275357797373e-01 -1.9092664160262651e-01 0.0000000000000000e+00  2.5921435159072437e-01 -1.3796078916162621e-01 0.0000000000000000e+00  2.7744925536391257e-01 6.5574241509182202e-02 0.0000000000000000e+00  1.9154576030739290e-01 1.5540813793117736e-01 0.0000000000000000e+00  5.9200444102859751e-01 2.2168431143841039e-01 0.0000000000000000e+00  1.0303980458950797e-01 -2.2981996119670992e-01 0.0000000000000000e+00  1.7854357271773952e-01 -9.6453321065601656e-04 0.0000000000000000e+00  1.7930914591618080e-01 1.0927706951867121e-04 0.0000000000000000e+00  4.6822516928927069e-02 6.6435874130828054e-01 0.0000000000000000e+00  1.5878215436229304e-01 -2.4904240774337828e-02 0.0000000000000000e+00  -2.7703026194491748e-01 -3.4779242027210006e-01 0.0000000000000000e+00  6.5477371413170904e-01 -1.4742353971503119e-01 0.0000000000000000e+00  1.7006738012049458e-01 -8.7840229750989259e-03 0.0000000000000000e+00  1.5627509486136623e-01 2.6888003371100786e-02 0.0000000000000000e+00  8.5565662491395067e-01 -1.2300471891037858e-01 0.0000000000000000e+00  1.3142210906921342e-01 4.0117809168446283e-01 0.0000000000000000e+00  1.8096389730250295e-01 -1.7200582269489819e-04 0.0000000000000000e+00  1.2184881333022979e-01 -5.2041672511061017e-02 0.0000000000000000e+00  9.2598235002833806e-01 8.6829505955417774e-02 0.0000000000000000e+00  9.6038241796494694e-01 5.8250384623286515e-02 0.0000000000000000e+00  5.7039490579425825e-02 1.7156055763370207e-01 0.0000000000000000e+00  2.0498806252516830e-01 4.2348697146566909e-02 0.0000000000000000e+00  3.1441720314323046e-01 -3.5747836162572877e-01 0.0000000000000000e+00  1.8574490472751934e-01 -2.0208646373749112e-02 0.0000000000000000e+00  9.4595102802573783e-01 -7.2506914220723903e-02 0.0000000000000000e+00  1.8944167859403346e-01 -4.3263055034937431e-03 0.0000000000000000e+00  1.7311591916132490e-01 -8.0076460244897004e-03 0.0000000000000000e+00  3.7085348812881758e-01 -2.6146928019910877e-03 0.0000000000000000e+00  -3.1793428927617379e-01 -3.1121240683384621e-01 0.0000000000000000e+00  -3.8541938102228429e-01 -4.8464245334142797e-01 0.0000000000000000e+00  -6.6128864705613799e-02 8.7227962888228039e-02 0.0000000000000000e+00  2.5025313001225208e-01 -1.2617761268587893e-01 0.0000000000000000e+00  1.8685109034353758e-01 1.1146172933429695e-03 0.0000000000000000e+00  -5.1926406131144054e-01 -1.6626808981080254e-01 0.0000000000000000e+00  1.8175040194757897e-01 -1.3757108578962968e-03 0.0000000000000000e+00  1.9422710979352881e-01 -4.6392643541350094e-02 0.0000000000000000e+00  9.8249966079621009e-01 -1.3243078922755541e-04 0.0000000000000000e+00  3.9899308342586925e-02 1.1906012976768170e-01 0.0000000000000000e+00  8.1412460192567859e-01 -9.0177506552532483e-02 0.0000000000000000e+00  1.8492188190055134e-01 4.6714261038138475e-03 0.0000000000000000e+00  8.4970976922247254e-01 6.0953035418971367e-02 0.0000000000000000e+00  -2.0929014827745013e-01 -8.5188031589248758e-02 0.0000000000000000e+00  1.6821628556201174e-01 8.1667569301822930e-03 0.0000000000000000e+00  3.3132483501617216e-01 -5.8704686963740549e-01 0.0000000000000000e+00  6.1978025592423103e-01 -4.3325908354403941e-01 0.0000000000000000e+00  8.7007445852589094e-01 -9.9578661299089502e-02 0.0000000000000000e+00  2.0810513516204435e-01 2.5937541726200514e-01 0.0000000000000000e+00  1.7620187114110772e-01 -1.5317823617357243e-03 0.0000000000000000e+00  8.4513486678115229e-02 -2.1221783623834276e-01 0.0000000000000000e+00  -6.0550667850551432e-01 9.0159099843165891e-02 0.0000000000000000e+00  2.2034813592608496e-01 -2.5872021870360085e-01 0.0000000000000000e+00  -6.0795116244876346e-01 -8.9618837610926191e-02 0.0000000000000000e+00  2.5473025587724835e-01 -1.8444091434714475e-02 0.0000000000000000e+00  8.4157395850430172e-01 1.2292256000988099e-01 0.0000000000000000e+00  8.0079908189065996e-01 1.4413377938410701e-01 0.0000000000000000e+00  5.6255077161282052e-01 4.2583746011256063e-01 0.0000000000000000e+00  4.0963311913895850e-01 3.4163960037617963e-01 0.0000000000000000e+00  9.8231035011375689e-01 -3.1813376319