<?xml version="1.0"?>
<VTKFile type="UnstructuredGrid"  version="0.1"  >
<UnstructuredGrid>
<Piece  NumberOfPoints="622" NumberOfCells="1116">
<Points>
<DataArray  type="Float64"  NumberOfComponents="3"  format="ascii">-6 -2 0  -6 2 0  6 2 0  6 -2 0  -2.8 0 0  -1.2 0 0  -5.500000000001853 -2 0  -5.000000000003705 -2 0  -4.500000000005556 -2 0  -4.000000000007409 -2 0  -3.50000000000926 -2 0  -3.000000000011112 -2 0  -2.500000000012963 -2 0  -2.000000000014814 -2 0  -1.500000000016665 -2 0  -1.000000000018516 -2 0  -0.5000000000203677 -2 0  -2.204547655537681e-11 -2 0  0.4999999999796305 -2 0  0.9999999999814779 -2 0  1.499999999983327 -2 0  1.999999999985175 -2 0  2.499999999987029 -2 0  2.999999999988882 -2 0  3.499999999990735 -2 0  3.999999999992589 -2 0  4.49999999999444 -2 0  4.999999999996293 -2 0  5.499999999998147 -2 0  6 -1.500000000001387 0  6 -1.000000000002774 0  6 -0.5000000000041616 0  6 -5.505595979116151e-12 0  6 0.4999999999958384 0  6 0.9999999999972258 0  6 1.499999999998613 0  5.500000000001853 2 0  5.000000000003705 2 0  4.500000000005556 2 0  4.000000000007409 2 0  3.50000000000926 2 0  3.000000000011112 2 0  2.500000000012963 2 0  2.000000000014814 2 0  1.500000000016665 2 0  1.000000000018516 2 0  0.5000000000203677 2 0  2.204547655537681e-11 2 0  -0.4999999999796305 2 0  -0.9999999999814779 2 0  -1.499999999983327 2 0  -1.999999999985175 2 0  -2.499999999987029 2 0  -2.999999999988882 2 0  -3.499999999990735 2 0  -3.999999999992589 2 0  -4.49999999999444 2 0  -4.999999999996293 2 0  -5.499999999998147 2 0  -6 1.500000000001387 0  -6 1.000000000002774 0  -6 0.5000000000041616 0  -6 5.505595979116151e-12 0  -6 -0.4999999999958384 0  -6 -0.9999999999972258 0  -6 -1.499999999998613 0  -2.796147781337886 -0.07841371226233997 0  -2.784628224322852 -0.1560722576115546 0  -2.765552268586196 -0.2322277418021561 0  -2.739103626009626 -0.30614674589063 0  -2.705537011479457 -0.3771173894593519 0  -2.665175689843037 -0.4444561864141836 0  -2.618408362691456 -0.5075146273293722 0  -2.565685424950688 -0.5656854249477874 0  -2.507514627332613 -0.6184083626887972 0  -2.444456186417533 -0.6651756898407991 0  -2.377117389462776 -0.7055370114776264 0  -2.306146745894456 -0.7391036260080417 0  -2.232227741806235 -0.7655522685849585 0  -2.15607225761588 -0.784628224321992 0  -2.078413712266957 -0.7961477813374315 0  -2.000000000003407 -0.7999999999999998 0  -1.921586287739523 -0.7961477813380696 0  -1.843927742389945 -0.7846282243231506 0  -1.767772258198879 -0.7655522685865098 0  -1.693853254109962 -0.7391036260098718 0  -1.622882610540873 -0.7055370114795768 0  -1.555543813585629 -0.6651756898429115 0  -1.49248537267008 -0.6184083626910072 0  -1.434314575051535 -0.5656854249500112 0  -1.381591637310384 -0.5075146273316149 0  -1.334824310158267 -0.4444561864161359 0  -1.294462988521423 -0.3771173894609975 0  -1.260896373990956 -0.3061467458920351 0  -1.234447731414138 -0.2322277418032578 0  -1.215371775677287 -0.156072257612254 0  -1.203852218662147 -0.07841371226267954 0  -1.203852218662115 0.07841371226235888 0  -1.215371775677132 0.156072257611478 0  -1.234447731413795 0.232227741802127 0  -1.260896373990353 0.3061467458905811 0  -1.294462988520456 0.3771173894591898 0  -1.334824310156812 0.444456186413959 0  -1.381591637308413 0.5075146273292139 0  -1.434314575049147 0.5656854249476236 0  -1.492485372667197 0.6184083626886415 0  -1.555543813582104 0.6651756898405565 0  -1.62288261053673 0.7055370114773629 0  -1.693853254105125 0.7391036260078683 0  -1.767772258193396 0.7655522685848468 0  -1.84392774238373 0.7846282243219146 0  -1.921586287732977 0.7961477813374253 0  -1.999999999996558 0.8 0  -2.078413712260516 0.7961477813380661 0  -2.156072257610207 0.7846282243231205 0  -2.232227741801178 0.7655522685864928 0  -2.306146745890059 0.7391036260098632 0  -2.377117389459098 0.7055370114795929 0  -2.444456186414405 0.6651756898428894 0  -2.50751462732998 0.6184083626909587 0  -2.565685424948549 0.5656854249499272 0  -2.61840836268981 0.5075146273313792 0  -2.665175689841831 0.4444561864159886 0  -2.705537011478692 0.3771173894607835 0  -2.739103626009108 0.3061467458918818 0  -2.76555226858589 0.2322277418031643 0  -2.784628224322724 0.1560722576122001 0  -2.796147781337853 0.07841371226267957 0  0.6720367661319522 0.1312687487860887 0  -4.389489086394485 0.3544472233398538 0  -3.816221554046232 -0.6097988664512611 0  -3.552726516474419 0.9342959806851625 0  -0.2536610443052337 0.8162373554653355 0  -0.1843238977799138 -0.6649951410982842 0  -3.613359951620445 0.1086570650978273 0  -3.146954163409593 -1.074378179335012 0  -0.4255266515582625 0.07734891565364931 0  -0.9413731612925856 1.168014724254929 0  -2.947764053183577 1.200029094390044 0  -0.8319852757411681 -1.058626838707328 0  2.675418990747819 -1.137325591670363e-12 0  -2.602010642259726 -1.287560129290477 0  -2.334401622060699 1.335006108940604 0  -1.524718496628401 1.32890816230333 0  -1.369813829148039 -1.26145150481762 0  -3.294065651892671 -0.4630240940010318 0  -2.072749204569071 -1.388981302138359 0  -0.7546165313921411 0.5601792161340381 0  -3.224879719581335 0.4382689715877901 0  -0.7073137361349826 -0.4625305410752652 0  4.326242945813966 0.3262429458150917 0  -3.187880061217201 0.07437712177460168 0  -2.94792024259867 0.7030255657465158 0  -2.678809277907896 0.9152683582887104 0  -4.911626141576894 -0.5700186648601188 0  -2.980647654587299 -0.5685006168686053 0  -2.769438919323564 -0.8202775213660614 0  -1.936950121013948 1.220669938589229 0  -0.8971643766260747 0.2762459428874499 0  -0.8760878018253068 -0.06836412137772707 0  -1.086827485441145 0.6772548942594016 0  -1.31355927028917 0.8808768148414213 0  -1.034266382739347 -0.5912381576649568 0  -1.241594139118264 -0.836771920085274 0  1.667161185638911 -0.6367996576268693 0  1.778189842800902 0.7191719841256095 0  -3.065106827511819 -0.266795371500425 0  3.714311277362231 -0.7275465302492842 0  -1.728329421201519 -1.09954751473283 0  4.870629493137888 -0.7325040699186681 0  -3.024707894719303 0.2567561910603656 0  -4.375540207252226 1.228935704312058 0  -2.272077148001781 -1.086192861256262 0  3.351408248797803 0.9175227128129597 0  -5.141847419540732 0.8091901960109126 0  0.5769368286199241 1.111816231125821 0  0.7411482978492124 -1.079569101289617 0  -1.074013749991219 0.430231207546053 0  -1.04664573441257 -0.3358382377487088 0  -2.439195336951085 0.9224778883059374 0  -2.902607676587358 0.4360473765597399 0  -1.629450174302152 1.035617385691805 0  -2.146859933125513 1.032375363966426 0  2.587625196444542 -0.9999926061845814 0  -2.529286802957126 -0.8830616815739111 0  -1.493798157676768 -0.8794705728517196 0  -1.932158132383022 -1.026681566564148 0  -4.09956359341904 -0.1372485582942864 0  5.055802064425553 1.050933510837308 0  -4.413659685984891 -1.207626391697488 0  -4.961411026474009 0.1201902955685026 0  -3.771151641156835 -1.303594976371997 0  -3.001321503506133 -0.04919177107285733 0  -3.881733605683001 0.5124517634812003 0  -0.1971627317996802 -1.336445372382849 0  -2.742825060181767 0.6732573903735507 0  2.520439429199979 1.129372838786189 0  -1.026326428668429 0.1384273198437734 0  -2.779290004861729 -0.5844691722665721 0  -2.895095740820851 -0.4261289730972082 0  -1.275682076193407 0.6630703172777138 0  0.1045291701958869 0.3433373435296472 0  5.175560481258801 0.0608563229178163 0  -1.211574424201636 -0.5847362589868093 0  -1.85847006217035 1.007917631940711 0  4.152535916385823 1.131901130662082 0  -1.04878257200685 -0.1253529988863012 0  1.432836501626023 0.05634449574318775 0  3.560672936003603 0.01188897172456759 0  -3.351823698389408 -0.1821329582635926 0  -5.145153363200735 -1.259166339382508 0  0.03473693330309885 -0.1724947236036572 0  -4.377830921337186 -0.6172564090242229 0  -0.3943750728122595 1.410897156959435 0  -1.661073679471639 -0.9342065000197183 0  -1.49086536677686 0.8331714487926741 0  -2.584486130952032 0.7871482690034864 0  4.270535884593893 -1.259607924744415 0  -1.757417028085795 -1.505182186951191 0  -3.430586920998477 1.425579221231371 0  -2.917598827418652 -0.2298465409534677 0  -2.328978331116049 -0.9300959620317677 0  -2.148543000691344 -0.9751580214451921 0  1.002654111360038 -0.4521702885594788 0  -4.628651824080903 -0.1127998710567241 0  -2.948904386702482 0.1555943115410545 0  0.4165242577134774 -0.5629432649478633 0  -3.698137692471105 -0.3173027948676715 0  -3.491400684461791 -0.7926319721650269 0  -0.3844454817728994 0.4680628696134375 0  -3.207830713508533 0.9778749990559993 0  3.229909751065535 -1.326302454776001 0  5.330007715336748 -1.312905173261894 0  -2.649214054100534 -0.713314536278899 0  1.342022964818772 -1.328315248672686 0  -2.556460939068198 1.202372762828344 0  -0.3497819755044588 -0.3080427614060888 0  -4.928440909495523 1.387622767511967 0  1.309170811945155 1.337467055109531 0  -1.352031940181449 -0.7151198948590243 0  -0.6132855723904642 0.9519045895123004 0  4.266838388406324 -0.3707357390867402 0  -3.834389788310238 1.371594798941152 0  -1.187890214580146 0.4851427123079557 0  -1.109118888029193 0.3185947354467283 0  0.1837819401738013 1.234799661476361 0  1.108165254659559 0.6237223548284967 0  -0.5266600156584522 -0.8113991260886402 0  -4.643822083543982 0.7834094684931707 0  -1.146235204666366 -0.4027330721405781 0  2.049029845992713 -0.2664662499985428 0  2.002665761665898 -1.328912351029848 0  -1.678783505586872 0.8978832065736417 0  -2.049499525232052 0.9483890761590005 0  -2.229972236535132 0.9181006323151361 0  -3.033763529945482 -1.54240494280775 0  -3.562344364746847 0.5622550957224539 0  -5.524396842903405 -0.2709714867672603 0  -0.9710982764034376 -1.549038578476423 0  3.058819320130555 -0.5375106252795963 0  -4.170365230099585 0.7342553699229977 0  -1.045878746461381 -8.187420622554697e-05 0  -1.864822945411764 -0.9219031104673102 0  -0.6251005091687033 -0.2120650512195049 0  2.317562622406059 0.4886417799113238 0  -0.6674371191466613 0.1483993095055008 0  -2.705757882979874 1.609712312948224 0  
[...]
<PointData  Vectors="f_22"> 
<DataArray  type="Float64"  Name="f_22"  NumberOfComponents="3" format="ascii">0.0000000000000000e+00 0.0000000000000000e+00 0.0000000000000000e+00  0.0000000000000000e+00 0.0000000000000000e+00 0.0000000000000000e+00  0.0000000000000000e+00 0.0000000000000000e+00 0.0000000000000000e+00  0.0000000000000000e+00 0.0000000000000000e+00 0.0000000000000000e+00  9.9999997574238797e-01 0.0000000000000000e+00 0.0000000000000000e+00  9.9999997574238797e-01 0.0000000000000000e+00 0.0000000000000000e+00  0.0000000000000000e+00 0.0000000000000000e+00 0.0000000000000000e+00  0.0000000000000000e+00 0.0000000000000000e+00 0.0000000000000000e+00  0.0000000000000000e+00 0.0000000000000000e+00 0.0000000000000000e+00  0.0000000000000000e+00 0.0000000000000000e+00 0.0000000000000000e+00  0.0000000000000000e+00 0.0000000000000000e+00 0.0000000000000000e+00  0.0000000000000000e+00 0.0000000000000000e+00 0.0000000000000000e+00  0.0000000000000000e+00 0.0000000000000000e+00 0.0000000000000000e+00  0.0000000000000000e+00 0.0000000000000000e+00 0.0000000000000000e+00  0.0000000000000000e+00 0.0000000000000000e+00 0.0000000000000000e+00  0.0000000000000000e+00 0.0000000000000000e+00 0.0000000000000000e+00  0.0000000000000000e+00 0.0000000000000000e+00 0.0000000000000000e+00  0.0000000000000000e+00 0.0000000000000000e+00 0.0000000000000000e+00  0.0000000000000000e+00 0.0000000000000000e+00 0.0000000000000000e+00  0.0000000000000000e+00 0.0000000000000000e+00 0.0000000000000000e+00  0.0000000000000000e+00 0.0000000000000000e+00 0.0000000000000000e+00  0.0000000000000000e+00 0.0000000000000000e+00 0.0000000000000000e+00  0.0000000000000000e+00 0.0000000000000000e+00 0.0000000000000000e+00  0.0000000000000000e+00 0.0000000000000000e+00 0.0000000000000000e+00  0.0000000000000000e+00 0.0000000000000000e+00 0.0000000000000000e+00  0.0000000000000000e+00 0.0000000000000000e+00 0.0000000000000000e+00  0.0000000000000000e+00 0.0000000000000000e+00 0.0000000000000000e+00  0.0000000000000000e+00 0.0000000000000000e+00 0.0000000000000000e+00  0.0000000000000000e+00 0.0000000000000000e+00 0.0000000000000000e+00  2.9553978622534144e-01 1.2037512587160026e-04 0.0000000000000000e+00  3.2397625745471492e-01 1.5818957135121944e-04 0.0000000000000000e+00  3.2558694859089971e-01 -1.9720451959032625e-05 0.0000000000000000e+00  3.2568930007186109e-01 -1.0163727308755291e-05 0.0000000000000000e+00  3.2560665012354606e-01 -7.8573541691129870e-06 0.0000000000000000e+00  3.2466440052108037e-01 2.1952225934196272e-04 0.0000000000000000e+00  2.9614679097865187e-01 -4.9954922976212768e-04 0.0000000000000000e+00  0.0000000000000000e+00 0.0000000000000000e+00 0.0000000000000000e+00  0.0000000000000000e+00 0.0000000000000000e+00 0.0000000000000000e+00  0.0000000000000000e+00 0.0000000000000000e+00 0.0000000000000000e+00  0.0000000000000000e+00 0.0000000000000000e+00 0.0000000000000000e+00  0.0000000000000000e+00 0.0000000000000000e+00 0.0000000000000000e+00  0.0000000000000000e+00 0.0000000000000000e+00 0.0000000000000000e+00  0.0000000000000000e+00 0.0000000000000000e+00 0.0000000000000000e+00  0.0000000000000000e+00 0.0000000000000000e+00 0.0000000000000000e+00  0.0000000000000000e+00 0.0000000000000000e+00 0.0000000000000000e+00  0.0000000000000000e+00 0.0000000000000000e+00 0.0000000000000000e+00  0.0000000000000000e+00 0.0000000000000000e+00 0.0000000000000000e+00  0.0000000000000000e+00 0.0000000000000000e+00 0.0000000000000000e+00  0.0000000000000000e+00 0.0000000000000000e+00 0.0000000000000000e+00  0.0000000000000000e+00 0.0000000000000000e+00 0.0000000000000000e+00  0.0000000000000000e+00 0.0000000000000000e+00 0.0000000000000000e+00  0.0000000000000000e+00 0.0000000000000000e+00 0.0000000000000000e+00  0.0000000000000000e+00 0.0000000000000000e+00 0.0000000000000000e+00  0.0000000000000000e+00 0.0000000000000000e+00 0.0000000000000000e+00  0.0000000000000000e+00 0.0000000000000000e+00 0.0000000000000000e+00  0.0000000000000000e+00 0.0000000000000000e+00 0.0000000000000000e+00  0.0000000000000000e+00 0.0000000000000000e+00 0.0000000000000000e+00  0.0000000000000000e+00 0.0000000000000000e+00 0.0000000000000000e+00  0.0000000000000000e+00 0.0000000000000000e+00 0.0000000000000000e+00  2.8924716642241793e-01 -1.1776316301947527e-03 0.0000000000000000e+00  3.2164941843068062e-01 -1.0101398237205160e-03 0.0000000000000000e+00  3.3137264804732286e-01 -1.3952899204675419e-03 0.0000000000000000e+00  3.3656792087603593e-01 1.1614321789171977e-03 0.0000000000000000e+00  3.3243907572071241e-01 4.3141097624793386e-04 0.0000000000000000e+00  3.2292142295397808e-01 8.3334994346068105e-04 0.0000000000000000e+00  2.8897149591512650e-01 9.3215178153046967e-04 0.0000000000000000e+00  9.9999997574238797e-01 0.0000000000000000e+00 0.0000000000000000e+00  9.9999997574238797e-01 0.0000000000000000e+00 0.0000000000000000e+00  9.9999997574238797e-01 0.0000000000000000e+00 0.0000000000000000e+00  9.9999997574238797e-01 0.0000000000000000e+00 0.0000000000000000e+00  9.9999997574238797e-01 0.0000000000000000e+00 0.0000000000000000e+00  9.9999997574238797e-01 0.0000000000000000e+00 0.0000000000000000e+00  9.9999997574238797e-01 0.0000000000000000e+00 0.0000000000000000e+00  9.9999997574238797e-01 0.0000000000000000e+00 0.0000000000000000e+00  9.9999997574238797e-01 0.0000000000000000e+00 0.0000000000000000e+00  9.9999997574238797e-01 0.0000000000000000e+00 0.0000000000000000e+00  9.9999997574238797e-01 0.0000000000000000e+00 0.0000000000000000e+00  9.9999997574238797e-01 0.0000000000000000e+00 0.0000000000000000e+00  9.9999997574238797e-01 0.0000000000000000e+00 0.0000000000000000e+00  9.9999997574238797e-01 0.0000000000000000e+00 0.0000000000000000e+00  9.9999997574238797e-01 0.0000000000000000e+00 0.0000000000000000e+00  9.9999997574238797e-01 0.0000000000000000e+00 0.0000000000000000e+00  9.9999997574238797e-01 0.0000000000000000e+00 0.0000000000000000e+00  9.9999997574238797e-01 0.0000000000000000e+00 0.0000000000000000e+00  9.9999997574238797e-01 0.0000000000000000e+00 0.0000000000000000e+00  9.9999997574238797e-01 0.0000000000000000e+00 0.0000000000000000e+00  9.9999997574238797e-01 0.0000000000000000e+00 0.0000000000000000e+00  9.9999997574238797e-01 0.0000000000000000e+00 0.0000000000000000e+00  9.9999997574238797e-01 0.0000000000000000e+00 0.0000000000000000e+00  9.9999997574238797e-01 0.0000000000000000e+00 0.0000000000000000e+00  9.9999997574238797e-01 0.0000000000000000e+00 0.0000000000000000e+00  9.9999997574238797e-01 0.0000000000000000e+00 0.0000000000000000e+00  9.9999997574238797e-01 0.0000000000000000e+00 0.0000000000000000e+00  9.9999997574238797e-01 0.0000000000000000e+00 0.0000000000000000e+00  9.9999997574238797e-01 0.0000000000000000e+00 0.0000000000000000e+00  9.9999997574238797e-01 0.0000000000000000e+00 0.0000000000000000e+00  9.9999997574238797e-01 0.0000000000000000e+00 0.0000000000000000e+00  9.9999997574238797e-01 0.0000000000000000e+00 0.0000000000000000e+00  9.9999997574238797e-01 0.0000000000000000e+00 0.0000000000000000e+00  9.9999997574238797e-01 0.0000000000000000e+00 0.0000000000000000e+00  9.9999997574238797e-01 0.0000000000000000e+00 0.0000000000000000e+00  9.9999997574238797e-01 0.0000000000000000e+00 0.0000000000000000e+00  9.9999997574238797e-01 0.0000000000000000e+00 0.0000000000000000e+00  9.9999997574238797e-01 0.0000000000000000e+00 0.0000000000000000e+00  9.9999997574238797e-01 0.0000000000000000e+00 0.0000000000000000e+00  9.9999997574238797e-01 0.0000000000000000e+00 0.0000000000000000e+00  9.9999997574238797e-01 0.0000000000000000e+00 0.0000000000000000e+00  9.9999997574238797e-01 0.0000000000000000e+00 0.0000000000000000e+00  9.9999997574238797e-01 0.0000000000000000e+00 0.0000000000000000e+00  9.9999997574238797e-01 0.0000000000000000e+00 0.0000000000000000e+00  9.9999997574238797e-01 0.0000000000000000e+00 0.0000000000000000e+00  9.9999997574238797e-01 0.0000000000000000e+00 0.0000000000000000e+00  9.9999997574238797e-01 0.0000000000000000e+00 0.0000000000000000e+00  9.9999997574238797e-01 0.0000000000000000e+00 0.0000000000000000e+00  9.9999997574238797e-01 0.0000000000000000e+00 0.0000000000000000e+00  9.9999997574238797e-01 0.0000000000000000e+00 0.0000000000000000e+00  9.9999997574238797e-01 0.0000000000000000e+00 0.0000000000000000e+00  9.9999997574238797e-01 0.0000000000000000e+00 0.0000000000000000e+00  9.9999997574238797e-01 0.0000000000000000e+00 0.0000000000000000e+00  9.9999997574238797e-01 0.0000000000000000e+00 0.0000000000000000e+00  9.9999997574238797e-01 0.0000000000000000e+00 0.0000000000000000e+00  9.9999997574238797e-01 0.0000000000000000e+00 0.0000000000000000e+00  9.9999997574238797e-01 0.0000000000000000e+00 0.0000000000000000e+00  9.9999997574238797e-01 0.0000000000000000e+00 0.0000000000000000e+00  9.9999997574238797e-01 0.0000000000000000e+00 0.0000000000000000e+00  9.9999997574238797e-01 0.0000000000000000e+00 0.0000000000000000e+00  9.9999997574238797e-01 0.0000000000000000e+00 0.0000000000000000e+00  9.9999997574238797e-01 0.0000000000000000e+00 0.0000000000000000e+00  6.2991747229518580e-01 2.4903864990493744e-02 0.0000000000000000e+00  3.4765802758618070e-01 -1.2128901286364015e-02 0.0000000000000000e+00  3.5307304262304395e-01 5.7677055960640780e-02 0.0000000000000000e+00  3.0739093438727805e-01 -8.7361365209351879e-02 0.0000000000000000e+00  5.4631484232084404e-01 2.1882209494693192e-01 0.0000000000000000e+00  6.3121692939458007e-01 -1.6553542670046978e-01 0.0000000000000000e+00  4.2473297471359300e-01 -2.0125199570075223e-02 0.0000000000000000e+00  2.1825141816096877e-01 1.3011905058969006e-01 0.0000000000000000e+00  8.7136762607303753e-01 1.7117582479065224e-02 0.0000000000000000e+00  6.8498387640278546e-02 1.7944618786808625e-01 0.0000000000000000e+00  1.4505778065714506e-01 -1.1915183273961200e-01 0.0000000000000000e+00  3.4553758227566950e-01 -2.5282856840867640e-01 0.0000000000000000e+00  3.4470312452529578e-01 -1.5889657415723405e-04 0.0000000000000000e+00  -8.4887624535812823e-03 1.8921679153478022e-01 0.0000000000000000e+00  -1.8570066864758877e-01 -2.7140997847635145e-01 0.0000000000000000e+00  -4.2825343749643002e-01 -2.2692126029101592e-01 0.0000000000000000e+00  -2.9866636169555272e-01 1.2141262537506697e-01 0.0000000000000000e+00  4.2193328219465759e-01 1.5233886979810587e-01 0.0000000000000000e+00  -3.5178011755731770e-01 3.0714368395096203e-01 0.0000000000000000e+00  8.6100381051040675e-01 1.3100856323625648e-01 0.0000000000000000e+00  4.4434680877220545e-01 -1.7138499353891537e-01 0.0000000000000000e+00  8.7324360284149571e-01 -1.0739845379582308e-01 0.0000000000000000e+00  3.2621069926778340e-01 4.3643018222087925e-04 0.0000000000000000e+00  5.7206811871689656e-01 -4.0692600585707048e-02 0.0000000000000000e+00  2.8065076183964432e-01 -3.1694628091771548e-01 0.0000000000000000e+00  2.1859195853306250e-02 -3.9434601029117478e-01 0.0000000000000000e+00  3.3382037505733653e-01 6.3767798813914823e-03 0.0000000000000000e+00  3.8480842078668653e-01 3.2474683084232026e-01 0.0000000000000000e+00  1.1979388406103059e-01 3.9821792081624569e-01 0.0000000000000000e+00  -3.5689260491567443e-01 -3.5803223648507476e-01 0.0000000000000000e+00  9.5409018024619741e-01 4.6347108780024474e-02 0.0000000000000000e+00  9.6696195727621748e-01 -1.2518141755085650e-02 0.0000000000000000e+00  9.4718364904066055e-01 9.8110775222334259e-02 0.0000000000000000e+00  6.8334811781776905e-01 3.8961365329189132e-02 0.0000000000000000e+00  9.3965567223239088e-01 -9.1035881678092068e-02 0.0000000000000000e+00  8.0184186777629185e-01 -6.9481269855268757e-02 0.0000000000000000e+00  3.6776063623424415e-01 -9.4874722960183330e-02 0.0000000000000000e+00  3.4338222430662002e-01 9.1217763233120780e-02 0.0000000000000000e+00  5.8169661825581054e-01 1.9652825239034824e-01 0.0000000000000000e+00  3.2576786938325997e-01 -2.4055606028649951e-03 0.0000000000000000e+00  -1.3440853002061010e-01 2.2812977088180791e-01 0.0000000000000000e+00  3.2544556999232532e-01 -2.7894853837799138e-04 0.0000000000000000e+00  6.1138175761455238e-01 -2.1176552848456720e-01 0.0000000000000000e+00  3.0836174167440950e-01 -1.8107560305674258e-02 0.0000000000000000e+00  -2.8637819776334567e-01 4.5603568505847120e-01 0.0000000000000000e+00  3.2264579145665950e-01 4.6689413442169972e-03 0.0000000000000000e+00  3.2730087305611805e-01 -4.1028325483616832e-03 0.0000000000000000e+00  2.2626409084067453e-01 1.5754334850994101e-01 0.0000000000000000e+00  2.4634937861607095e-01 -1.5635718548227259e-01 0.0000000000000000e+00  9.6414019191938027e-01 5.0549653438703997e-02 0.0000000000000000e+00  9.7147400574836351e-01 -3.9985851150880596e-02 0.0000000000000000e+00  -1.7108594588770507e-01 -5.3710754320945031e-01 0.0000000000000000e+00  5.1661708235739612e-01 -3.6518328187749377e-01 0.0000000000000000e+00  6.9587685324046786e-02 -1.5392761864573767e-01 0.0000000000000000e+00  -2.9341616783562324e-01 -4.1804622900558425e-01 0.0000000000000000e+00  3.1618254399074558e-01 -2.1130051269077341e-02 0.0000000000000000e+00  -7.9144312979024994e-02 5.2514455232188717e-01 0.0000000000000000e+00  6.2396191297896841e-01 7.2853788240694614e-03 0.0000000000000000e+00  -1.7398527559649304e-01 2.9030143291210025e-01 0.0000000000000000e+00  3.6661734981566552e-01 1.0086527597926690e-02 0.0000000000000000e+00  3.2307271559890138e-01 4.6700652167055886e-04 0.0000000000000000e+00  3.0955245110379798e-01 1.7430460732233265e-02 0.0000000000000000e+00  3.3952258707493177e-01 -8.7327164596639399e-04 0.0000000000000000e+00  2.7660559392998502e-01 4.0407731613019471e-02 0.0000000000000000e+00  7.1792587902345650e-01 3.8545594705121103e-02 0.0000000000000000e+00  3.6040493618224678e-01 -4.5028287253738059e-02 0.0000000000000000e+00  -3.1457262338166279e-02 -2.1490065448178419e-01 0.0000000000000000e+00  2.1950433111322679e-01 -4.9932234096893779e-01 0.0000000000000000e+00  3.0765949778582979e-01 2.2508059578494600e-02 0.0000000000000000e+00  9.8610369665184094e-01 1.5005329950262134e-02 0.0000000000000000e+00  3.3201915238727298e-01 5.0213771506264648e-01 0.0000000000000000e+00  5.3589432384694846e-01 3.6190640975659327e-01 0.0000000000000000e+00  9.8912868344249560e-01 3.8594199280320464e-02 0.0000000000000000e+00  7.0366823258359656e-01 7.2247150691250608e-02 0.0000000000000000e+00  3.2580155325772353e-01 1.0095103466244342e-04 0.0000000000000000e+00  9.7613633357030039e-01 -4.5590531712029841e-02 0.0000000000000000e+00  -7.7456567229549522e-02 -2.3656975145688167e-01 0.0000000000000000e+00  3.2145972050745142e-01 8.9285079718483176e-04 0.0000000000000000e+00  9.8922809453461225e-01 -1.3174324837005855e-02 0.0000000000000000e+00  4.9002727732913487e-01 1.0552326958263310e-02 0.0000000000000000e+00  3.2900750110681193e-01 8.1757977670599734e-05 0.0000000000000000e+00  4.8555145067745614e-01 6.5964548367422979e-02 0.0000000000000000e+00  3.1263644984663885e-01 4.2448667185452545e-03 0.0000000000000000e+00  7.5471378772428410e-01 -3.8339001384687557e-02 0.0000000000000000e+00  3.3866039031217432e-01 1.9712605696447928e-02 0.0000000000000000e+00  -1.2960197097325327e-01 2.1853717563179406e-01 0.0000000000000000e+00  3.1334116201759787e-01 7.4160201197330758e-02 0.0000000000000000e+00  7.9391069390274494e-01 5.2292382649955643e-03 0.0000000000000000e+00  -1.3834138422518159e-02 -5.9103138836778468e-01 0.0000000000000000e+00  3.1796584282967216e-01 -5.1019451898343018e-04 0.0000000000000000e+00  -5.3558253505513298e-01 2.5293341735244629e-01 0.0000000000000000e+00  2.2741840655329090e-01 -4.2727255837862535e-02 0.0000000000000000e+00  7.0782005266651415e-01 2.5795219220522775e-01 0.0000000000000000e+00  -2.5179619119970403e-01 5.2416136624772980e-01 0.0000000000000000e+00  -2.7480092468470152e-01 4.0193748761186471e-01 0.0000000000000000e+00  5.0963702082103746e-01 -8.1053832645137991e-02 0.0000000000000000e+00  3.4495286588268514e-01 3.1926121011190199e-03 0.0000000000000000e+00  7.3455013987676487e-01 -1.6119726916715826e-01 0.0000000000000000e+00  5.6394484126442002e-01 -1.0647522133770729e-01 0.0000000000000000e+00  3.9462746627885925e-01 4.8964234182680644e-02 0.0000000000000000e+00  3.2620692579952720e-01 1.0592212494162155e-01 0.0000000000000000e+00  7.7936728467405880e-01 1.1731387629758754e-01 0.0000000000000000e+00  2.5536806844300264e-01 -1.4052788429136320e-01 0.0000000000000000e+00  3.1023286662632399e-01 -3.7215320731519971e-03 0.0000000000000000e+00  3.1580218368353835e-01 -3.6755027485258850e-05 0.0000000000000000e+00  9.3388111451163727e-02 5.9527549964302928e-01 0.0000000000000000e+00  1.8582804777956310e-01 -1.0320861045372084e-01 0.0000000000000000e+00  -5.4417541235459749e-02 -2.5994919668310007e-01 0.0000000000000000e+00  8.1757382184839822e-01 -7.5735121275372755e-02 0.0000000000000000e+00  3.0140831521817285e-01 -5.5696400732184606e-03 0.0000000000000000e+00  1.7479075098724414e-01 1.0273555493988727e-01 0.0000000000000000e+00  9.8659337189978114e-01 -2.7499069269769735e-02 0.0000000000000000e+00  5.1308220477729582e-01 2.8678551365089167e-01 0.0000000000000000e+00  3.2624797903083391e-01 -5.4743317256018451e-04 0.0000000000000000e+00  2.7199969098920102e-01 -3.2885806187304530e-02 0.0000000000000000e+00  9.7579314707332765e-01 3.6800211525993998e-02 0.0000000000000000e+00  9.8230888689391005e-01 2.8044752221635032e-02 0.0000000000000000e+00  1.2389597556411296e-01 1.7886149400403448e-01 0.0000000000000000e+00  4.3791202284469638e-01 1.0731838063047552e-01 0.0000000000000000e+00  6.4430444382359064e-01 -2.3794962138701048e-01 0.0000000000000000e+00  3.3033689118658288e-01 -1.2284975228672983e-02 0.0000000000000000e+00  9.7845018446462695e-01 -3.3676601665998403e-02 0.0000000000000000e+00  3.8025770513038315e-01 -3.1869472119785407e-02 0.0000000000000000e+00  2.7037982849239717e-01 -4.1372779563219643e-02 0.0000000000000000e+00  4.4733371201767042e-01 -4.2157582590011546e-02 0.0000000000000000e+00  -1.9482412106977454e-01 -2.9728233997737885e-01 0.0000000000000000e+00  -2.8312701533953455e-01 -4.6909282149039033e-01 0.0000000000000000e+00  1.5073862742870450e-01 2.9882413771802317e-02 0.0000000000000000e+00  3.7243557977973613e-01 -9.0099295498351328e-02 0.0000000000000000e+00  3.3504071157671661e-01 8.4040304943478947e-04 0.0000000000000000e+00  -5.5954947317174109e-01 -6.9474505906590558e-02 0.0000000000000000e+00  3.2986356893414764e-01 -7.7937643194165452e-03 0.0000000000000000e+00  3.3603459538519742e-01 -3.0829457763400629e-02 0.0000000000000000e+00  9.9109809094434442e-01 -3.2241048058186681e-04 0.0000000000000000e+00  1.2202141212960202e-01 1.1594260120331881e-01 0.0000000000000000e+00  9.0364422123638244e-01 -4.8135095132813520e-02 0.0000000000000000e+00  3.4650387193241083e-01 3.0838074729845778e-02 0.0000000000000000e+00  9.2218442535907608e-01 3.1505085053762087e-02 0.0000000000000000e+00  9.6039556797426207e-02 -3.2439732649180597e-02 0.0000000000000000e+00  2.5547847444830918e-01 4.1787069425428550e-02 0.0000000000000000e+00  3.7789997443704865e-01 -5.0190540608519196e-01 0.0000000000000000e+00  6.5907908982203944e-01 -3.7461314437776311e-01 0.0000000000000000e+00  9.3467581657271859e-01 -5.3629413483961705e-02 0.0000000000000000e+00  3.2245595675562522e-01 1.8609940644181172e-01 0.0000000000000000e+00  3.1292396699686842e-01 -1.2703902140746601e-03 0.0000000000000000e+00  2.5046646234263548e-01 -1.8790055309866072e-01 0.0000000000000000e+00  -6.8676683356347579e-01 -2.9507936342955611e-03 0.0000000000000000e+00  3.3415743304942791e-01 -1.8532924638268353e-01 0.0000000000000000e+00  -3.5001145391950167e-01 -1.5626949733740994e-01 0.0000000000000000e+00  3.7975604203351176e-01 -1.2283447597994353e-02 0.0000000000000000e+00  9.7800407141857637e-01 2.0356299204517765e-02 0.0000000000000000e+00  8.9945475704539657e-01 7.7684192492568749e-02 0.0000000000000000e+00  5.9438796765180169e-01 3.6734539194133775e-01 0.0000000000000000e+00  7.5694020458810984e-01 2.1270922645429516e-01 0.0000000000000000e+00  9.9155815870437991e-01 -1.590341071840748