<?xml version="1.0"?>
<VTKFile type="UnstructuredGrid"  version="0.1"  >
<UnstructuredGrid>
<Piece  NumberOfPoints="622" NumberOfCells="1116">
<Points>
<DataArray  type="Float64"  NumberOfComponents="3"  format="ascii">-6 -2 0  -6 2 0  6 2 0  6 -2 0  -2.8 0 0  -1.2 0 0  -5.500000000001853 -2 0  -5.000000000003705 -2 0  -4.500000000005556 -2 0  -4.000000000007409 -2 0  -3.50000000000926 -2 0  -3.000000000011112 -2 0  -2.500000000012963 -2 0  -2.000000000014814 -2 0  -1.500000000016665 -2 0  -1.000000000018516 -2 0  -0.5000000000203677 -2 0  -2.204547655537681e-11 -2 0  0.4999999999796305 -2 0  0.9999999999814779 -2 0  1.499999999983327 -2 0  1.999999999985175 -2 0  2.499999999987029 -2 0  2.999999999988882 -2 0  3.499999999990735 -2 0  3.999999999992589 -2 0  4.49999999999444 -2 0  4.999999999996293 -2 0  5.499999999998147 -2 0  6 -1.500000000001387 0  6 -1.000000000002774 0  6 -0.5000000000041616 0  6 -5.505595979116151e-12 0  6 0.4999999999958384 0  6 0.9999999999972258 0  6 1.499999999998613 0  5.500000000001853 2 0  5.000000000003705 2 0  4.500000000005556 2 0  4.000000000007409 2 0  3.50000000000926 2 0  3.000000000011112 2 0  2.500000000012963 2 0  2.000000000014814 2 0  1.500000000016665 2 0  1.000000000018516 2 0  0.5000000000203677 2 0  2.204547655537681e-11 2 0  -0.4999999999796305 2 0  -0.9999999999814779 2 0  -1.499999999983327 2 0  -1.999999999985175 2 0  -2.499999999987029 2 0  -2.999999999988882 2 0  -3.499999999990735 2 0  -3.999999999992589 2 0  -4.49999999999444 2 0  -4.999999999996293 2 0  -5.499999999998147 2 0  -6 1.500000000001387 0  -6 1.000000000002774 0  -6 0.5000000000041616 0  -6 5.505595979116151e-12 0  -6 -0.4999999999958384 0  -6 -0.9999999999972258 0  -6 -1.499999999998613 0  -2.796147781337886 -0.07841371226233997 0  -2.784628224322852 -0.1560722576115546 0  -2.765552268586196 -0.2322277418021561 0  -2.739103626009626 -0.30614674589063 0  -2.705537011479457 -0.3771173894593519 0  -2.665175689843037 -0.4444561864141836 0  -2.618408362691456 -0.5075146273293722 0  -2.565685424950688 -0.5656854249477874 0  -2.507514627332613 -0.6184083626887972 0  -2.444456186417533 -0.6651756898407991 0  -2.377117389462776 -0.7055370114776264 0  -2.306146745894456 -0.7391036260080417 0  -2.232227741806235 -0.7655522685849585 0  -2.15607225761588 -0.784628224321992 0  -2.078413712266957 -0.7961477813374315 0  -2.000000000003407 -0.7999999999999998 0  -1.921586287739523 -0.7961477813380696 0  -1.843927742389945 -0.7846282243231506 0  -1.767772258198879 -0.7655522685865098 0  -1.693853254109962 -0.7391036260098718 0  -1.622882610540873 -0.7055370114795768 0  -1.555543813585629 -0.6651756898429115 0  -1.49248537267008 -0.6184083626910072 0  -1.434314575051535 -0.5656854249500112 0  -1.381591637310384 -0.5075146273316149 0  -1.334824310158267 -0.4444561864161359 0  -1.294462988521423 -0.3771173894609975 0  -1.260896373990956 -0.3061467458920351 0  -1.234447731414138 -0.2322277418032578 0  -1.215371775677287 -0.156072257612254 0  -1.203852218662147 -0.07841371226267954 0  -1.203852218662115 0.07841371226235888 0  -1.215371775677132 0.156072257611478 0  -1.234447731413795 0.232227741802127 0  -1.260896373990353 0.3061467458905811 0  -1.294462988520456 0.3771173894591898 0  -1.334824310156812 0.444456186413959 0  -1.381591637308413 0.5075146273292139 0  -1.434314575049147 0.5656854249476236 0  -1.492485372667197 0.6184083626886415 0  -1.555543813582104 0.6651756898405565 0  -1.62288261053673 0.7055370114773629 0  -1.693853254105125 0.7391036260078683 0  -1.767772258193396 0.7655522685848468 0  -1.84392774238373 0.7846282243219146 0  -1.921586287732977 0.7961477813374253 0  -1.999999999996558 0.8 0  -2.078413712260516 0.7961477813380661 0  -2.156072257610207 0.7846282243231205 0  -2.232227741801178 0.7655522685864928 0  -2.306146745890059 0.7391036260098632 0  -2.377117389459098 0.7055370114795929 0  -2.444456186414405 0.6651756898428894 0  -2.50751462732998 0.6184083626909587 0  -2.565685424948549 0.5656854249499272 0  -2.61840836268981 0.5075146273313792 0  -2.665175689841831 0.4444561864159886 0  -2.705537011478692 0.3771173894607835 0  -2.739103626009108 0.3061467458918818 0  -2.76555226858589 0.2322277418031643 0  -2.784628224322724 0.1560722576122001 0  -2.796147781337853 0.07841371226267957 0  0.6720367661319522 0.1312687487860887 0  -4.389489086394485 0.3544472233398538 0  -3.816221554046232 -0.6097988664512611 0  -3.552726516474419 0.9342959806851625 0  -0.2536610443052337 0.8162373554653355 0  -0.1843238977799138 -0.6649951410982842 0  -3.613359951620445 0.1086570650978273 0  -3.146954163409593 -1.074378179335012 0  -0.4255266515582625 0.07734891565364931 0  -0.9413731612925856 1.168014724254929 0  -2.947764053183577 1.200029094390044 0  -0.8319852757411681 -1.058626838707328 0  2.675418990747819 -1.137325591670363e-12 0  -2.602010642259726 -1.287560129290477 0  -2.334401622060699 1.335006108940604 0  -1.524718496628401 1.32890816230333 0  -1.369813829148039 -1.26145150481762 0  -3.294065651892671 -0.4630240940010318 0  -2.072749204569071 -1.388981302138359 0  -0.7546165313921411 0.5601792161340381 0  -3.224879719581335 0.4382689715877901 0  -0.7073137361349826 -0.4625305410752652 0  4.326242945813966 0.3262429458150917 0  -3.187880061217201 0.07437712177460168 0  -2.94792024259867 0.7030255657465158 0  -2.678809277907896 0.9152683582887104 0  -4.911626141576894 -0.5700186648601188 0  -2.980647654587299 -0.5685006168686053 0  -2.769438919323564 -0.8202775213660614 0  -1.936950121013948 1.220669938589229 0  -0.8971643766260747 0.2762459428874499 0  -0.8760878018253068 -0.06836412137772707 0  -1.086827485441145 0.6772548942594016 0  -1.31355927028917 0.8808768148414213 0  -1.034266382739347 -0.5912381576649568 0  -1.241594139118264 -0.836771920085274 0  1.667161185638911 -0.6367996576268693 0  1.778189842800902 0.7191719841256095 0  -3.065106827511819 -0.266795371500425 0  3.714311277362231 -0.7275465302492842 0  -1.728329421201519 -1.09954751473283 0  4.870629493137888 -0.7325040699186681 0  -3.024707894719303 0.2567561910603656 0  -4.375540207252226 1.228935704312058 0  -2.272077148001781 -1.086192861256262 0  3.351408248797803 0.9175227128129597 0  -5.141847419540732 0.8091901960109126 0  0.5769368286199241 1.111816231125821 0  0.7411482978492124 -1.079569101289617 0  -1.074013749991219 0.430231207546053 0  -1.04664573441257 -0.3358382377487088 0  -2.439195336951085 0.9224778883059374 0  -2.902607676587358 0.4360473765597399 0  -1.629450174302152 1.035617385691805 0  -2.146859933125513 1.032375363966426 0  2.587625196444542 -0.9999926061845814 0  -2.529286802957126 -0.8830616815739111 0  -1.493798157676768 -0.8794705728517196 0  -1.932158132383022 -1.026681566564148 0  -4.09956359341904 -0.1372485582942864 0  5.055802064425553 1.050933510837308 0  -4.413659685984891 -1.207626391697488 0  -4.961411026474009 0.1201902955685026 0  -3.771151641156835 -1.303594976371997 0  -3.001321503506133 -0.04919177107285733 0  -3.881733605683001 0.5124517634812003 0  -0.1971627317996802 -1.336445372382849 0  -2.742825060181767 0.6732573903735507 0  2.520439429199979 1.129372838786189 0  -1.026326428668429 0.1384273198437734 0  -2.779290004861729 -0.5844691722665721 0  -2.895095740820851 -0.4261289730972082 0  -1.275682076193407 0.6630703172777138 0  0.1045291701958869 0.3433373435296472 0  5.175560481258801 0.0608563229178163 0  -1.211574424201636 -0.5847362589868093 0  -1.85847006217035 1.007917631940711 0  4.152535916385823 1.131901130662082 0  -1.04878257200685 -0.1253529988863012 0  1.432836501626023 0.05634449574318775 0  3.560672936003603 0.01188897172456759 0  -3.351823698389408 -0.1821329582635926 0  -5.145153363200735 -1.259166339382508 0  0.03473693330309885 -0.1724947236036572 0  -4.377830921337186 -0.6172564090242229 0  -0.3943750728122595 1.410897156959435 0  -1.661073679471639 -0.9342065000197183 0  -1.49086536677686 0.8331714487926741 0  -2.584486130952032 0.7871482690034864 0  4.270535884593893 -1.259607924744415 0  -1.757417028085795 -1.505182186951191 0  -3.430586920998477 1.425579221231371 0  -2.917598827418652 -0.2298465409534677 0  -2.328978331116049 -0.9300959620317677 0  -2.148543000691344 -0.9751580214451921 0  1.002654111360038 -0.4521702885594788 0  -4.628651824080903 -0.1127998710567241 0  -2.948904386702482 0.1555943115410545 0  0.4165242577134774 -0.5629432649478633 0  -3.698137692471105 -0.3173027948676715 0  -3.491400684461791 -0.7926319721650269 0  -0.3844454817728994 0.4680628696134375 0  -3.207830713508533 0.9778749990559993 0  3.229909751065535 -1.326302454776001 0  5.330007715336748 -1.312905173261894 0  -2.649214054100534 -0.713314536278899 0  1.342022964818772 -1.328315248672686 0  -2.556460939068198 1.202372762828344 0  -0.3497819755044588 -0.3080427614060888 0  -4.928440909495523 1.387622767511967 0  1.309170811945155 1.337467055109531 0  -1.352031940181449 -0.7151198948590243 0  -0.6132855723904642 0.9519045895123004 0  4.266838388406324 -0.3707357390867402 0  -3.834389788310238 1.371594798941152 0  -1.187890214580146 0.4851427123079557 0  -1.109118888029193 0.3185947354467283 0  0.1837819401738013 1.234799661476361 0  1.108165254659559 0.6237223548284967 0  -0.5266600156584522 -0.8113991260886402 0  -4.643822083543982 0.7834094684931707 0  -1.146235204666366 -0.4027330721405781 0  2.049029845992713 -0.2664662499985428 0  2.002665761665898 -1.328912351029848 0  -1.678783505586872 0.8978832065736417 0  -2.049499525232052 0.9483890761590005 0  -2.229972236535132 0.9181006323151361 0  -3.033763529945482 -1.54240494280775 0  -3.562344364746847 0.5622550957224539 0  -5.524396842903405 -0.2709714867672603 0  -0.9710982764034376 -1.549038578476423 0  3.058819320130555 -0.5375106252795963 0  -4.170365230099585 0.7342553699229977 0  -1.045878746461381 -8.187420622554697e-05 0  -1.864822945411764 -0.9219031104673102 0  -0.6251005091687033 -0.2120650512195049 0  2.317562622406059 0.4886417799113238 0  -0.6674371191466613 0.1483993095055008 0  -2.705757882979874 1.609712312948224 0  
[...]
<PointData  Vectors="f_22"> 
<DataArray  type="Float64"  Name="f_22"  NumberOfComponents="3" format="ascii">0.0000000000000000e+00 0.0000000000000000e+00 0.0000000000000000e+00  0.0000000000000000e+00 0.0000000000000000e+00 0.0000000000000000e+00  0.0000000000000000e+00 0.0000000000000000e+00 0.0000000000000000e+00  0.0000000000000000e+00 0.0000000000000000e+00 0.0000000000000000e+00  9.9999997964380183e-01 0.0000000000000000e+00 0.0000000000000000e+00  9.9999997964380183e-01 0.0000000000000000e+00 0.0000000000000000e+00  0.0000000000000000e+00 0.0000000000000000e+00 0.0000000000000000e+00  0.0000000000000000e+00 0.0000000000000000e+00 0.0000000000000000e+00  0.0000000000000000e+00 0.0000000000000000e+00 0.0000000000000000e+00  0.0000000000000000e+00 0.0000000000000000e+00 0.0000000000000000e+00  0.0000000000000000e+00 0.0000000000000000e+00 0.0000000000000000e+00  0.0000000000000000e+00 0.0000000000000000e+00 0.0000000000000000e+00  0.0000000000000000e+00 0.0000000000000000e+00 0.0000000000000000e+00  0.0000000000000000e+00 0.0000000000000000e+00 0.0000000000000000e+00  0.0000000000000000e+00 0.0000000000000000e+00 0.0000000000000000e+00  0.0000000000000000e+00 0.0000000000000000e+00 0.0000000000000000e+00  0.0000000000000000e+00 0.0000000000000000e+00 0.0000000000000000e+00  0.0000000000000000e+00 0.0000000000000000e+00 0.0000000000000000e+00  0.0000000000000000e+00 0.0000000000000000e+00 0.0000000000000000e+00  0.0000000000000000e+00 0.0000000000000000e+00 0.0000000000000000e+00  0.0000000000000000e+00 0.0000000000000000e+00 0.0000000000000000e+00  0.0000000000000000e+00 0.0000000000000000e+00 0.0000000000000000e+00  0.0000000000000000e+00 0.0000000000000000e+00 0.0000000000000000e+00  0.0000000000000000e+00 0.0000000000000000e+00 0.0000000000000000e+00  0.0000000000000000e+00 0.0000000000000000e+00 0.0000000000000000e+00  0.0000000000000000e+00 0.0000000000000000e+00 0.0000000000000000e+00  0.0000000000000000e+00 0.0000000000000000e+00 0.0000000000000000e+00  0.0000000000000000e+00 0.0000000000000000e+00 0.0000000000000000e+00  0.0000000000000000e+00 0.0000000000000000e+00 0.0000000000000000e+00  1.9841289171121987e-01 2.8104595902703969e-05 0.0000000000000000e+00  2.0341115483552477e-01 2.1982977759285884e-04 0.0000000000000000e+00  2.0369485262820849e-01 3.7083982322984068e-05 0.0000000000000000e+00  2.0366371635461727e-01 1.2697592225216371e-05 0.0000000000000000e+00  2.0360387208819677e-01 -1.1074961107669692e-05 0.0000000000000000e+00  2.0355346515998898e-01 1.1961979778349147e-04 0.0000000000000000e+00  1.9868541399532166e-01 -1.6094468648282474e-04 0.0000000000000000e+00  0.0000000000000000e+00 0.0000000000000000e+00 0.0000000000000000e+00  0.0000000000000000e+00 0.0000000000000000e+00 0.0000000000000000e+00  0.0000000000000000e+00 0.0000000000000000e+00 0.0000000000000000e+00  0.0000000000000000e+00 0.0000000000000000e+00 0.0000000000000000e+00  0.0000000000000000e+00 0.0000000000000000e+00 0.0000000000000000e+00  0.0000000000000000e+00 0.0000000000000000e+00 0.0000000000000000e+00  0.0000000000000000e+00 0.0000000000000000e+00 0.0000000000000000e+00  0.0000000000000000e+00 0.0000000000000000e+00 0.0000000000000000e+00  0.0000000000000000e+00 0.0000000000000000e+00 0.0000000000000000e+00  0.0000000000000000e+00 0.0000000000000000e+00 0.0000000000000000e+00  0.0000000000000000e+00 0.0000000000000000e+00 0.0000000000000000e+00  0.0000000000000000e+00 0.0000000000000000e+00 0.0000000000000000e+00  0.0000000000000000e+00 0.0000000000000000e+00 0.0000000000000000e+00  0.0000000000000000e+00 0.0000000000000000e+00 0.0000000000000000e+00  0.0000000000000000e+00 0.0000000000000000e+00 0.0000000000000000e+00  0.0000000000000000e+00 0.0000000000000000e+00 0.0000000000000000e+00  0.0000000000000000e+00 0.0000000000000000e+00 0.0000000000000000e+00  0.0000000000000000e+00 0.0000000000000000e+00 0.0000000000000000e+00  0.0000000000000000e+00 0.0000000000000000e+00 0.0000000000000000e+00  0.0000000000000000e+00 0.0000000000000000e+00 0.0000000000000000e+00  0.0000000000000000e+00 0.0000000000000000e+00 0.0000000000000000e+00  0.0000000000000000e+00 0.0000000000000000e+00 0.0000000000000000e+00  0.0000000000000000e+00 0.0000000000000000e+00 0.0000000000000000e+00  1.9620342276941177e-01 -6.6867992203876005e-04 0.0000000000000000e+00  2.0172759687710726e-01 -8.0242747011052167e-04 0.0000000000000000e+00  2.0774368382027536e-01 -8.6465789100974235e-04 0.0000000000000000e+00  2.1066852737889172e-01 4.2300679017684867e-04 0.0000000000000000e+00  2.0847270061337247e-01 5.2463955148575152e-04 0.0000000000000000e+00  2.0238501787116486e-01 9.2358868692718130e-04 0.0000000000000000e+00  1.9601531012392681e-01 6.5963087946085074e-04 0.0000000000000000e+00  9.9999997964380183e-01 0.0000000000000000e+00 0.0000000000000000e+00  9.9999997964380183e-01 0.0000000000000000e+00 0.0000000000000000e+00  9.9999997964380183e-01 0.0000000000000000e+00 0.0000000000000000e+00  9.9999997964380183e-01 0.0000000000000000e+00 0.0000000000000000e+00  9.9999997964380183e-01 0.0000000000000000e+00 0.0000000000000000e+00  9.9999997964380183e-01 0.0000000000000000e+00 0.0000000000000000e+00  9.9999997964380183e-01 0.0000000000000000e+00 0.0000000000000000e+00  9.9999997964380183e-01 0.0000000000000000e+00 0.0000000000000000e+00  9.9999997964380183e-01 0.0000000000000000e+00 0.0000000000000000e+00  9.9999997964380183e-01 0.0000000000000000e+00 0.0000000000000000e+00  9.9999997964380183e-01 0.0000000000000000e+00 0.0000000000000000e+00  9.9999997964380183e-01 0.0000000000000000e+00 0.0000000000000000e+00  9.9999997964380183e-01 0.0000000000000000e+00 0.0000000000000000e+00  9.9999997964380183e-01 0.0000000000000000e+00 0.0000000000000000e+00  9.9999997964380183e-01 0.0000000000000000e+00 0.0000000000000000e+00  9.9999997964380183e-01 0.0000000000000000e+00 0.0000000000000000e+00  9.9999997964380183e-01 0.0000000000000000e+00 0.0000000000000000e+00  9.9999997964380183e-01 0.0000000000000000e+00 0.0000000000000000e+00  9.9999997964380183e-01 0.0000000000000000e+00 0.0000000000000000e+00  9.9999997964380183e-01 0.0000000000000000e+00 0.0000000000000000e+00  9.9999997964380183e-01 0.0000000000000000e+00 0.0000000000000000e+00  9.9999997964380183e-01 0.0000000000000000e+00 0.0000000000000000e+00  9.9999997964380183e-01 0.0000000000000000e+00 0.0000000000000000e+00  9.9999997964380183e-01 0.0000000000000000e+00 0.0000000000000000e+00  9.9999997964380183e-01 0.0000000000000000e+00 0.0000000000000000e+00  9.9999997964380183e-01 0.0000000000000000e+00 0.0000000000000000e+00  9.9999997964380183e-01 0.0000000000000000e+00 0.0000000000000000e+00  9.9999997964380183e-01 0.0000000000000000e+00 0.0000000000000000e+00  9.9999997964380183e-01 0.0000000000000000e+00 0.0000000000000000e+00  9.9999997964380183e-01 0.0000000000000000e+00 0.0000000000000000e+00  9.9999997964380183e-01 0.0000000000000000e+00 0.0000000000000000e+00  9.9999997964380183e-01 0.0000000000000000e+00 0.0000000000000000e+00  9.9999997964380183e-01 0.0000000000000000e+00 0.0000000000000000e+00  9.9999997964380183e-01 0.0000000000000000e+00 0.0000000000000000e+00  9.9999997964380183e-01 0.0000000000000000e+00 0.0000000000000000e+00  9.9999997964380183e-01 0.0000000000000000e+00 0.0000000000000000e+00  9.9999997964380183e-01 0.0000000000000000e+00 0.0000000000000000e+00  9.9999997964380183e-01 0.0000000000000000e+00 0.0000000000000000e+00  9.9999997964380183e-01 0.0000000000000000e+00 0.0000000000000000e+00  9.9999997964380183e-01 0.0000000000000000e+00 0.0000000000000000e+00  9.9999997964380183e-01 0.0000000000000000e+00 0.0000000000000000e+00  9.9999997964380183e-01 0.0000000000000000e+00 0.0000000000000000e+00  9.9999997964380183e-01 0.0000000000000000e+00 0.0000000000000000e+00  9.9999997964380183e-01 0.0000000000000000e+00 0.0000000000000000e+00  9.9999997964380183e-01 0.0000000000000000e+00 0.0000000000000000e+00  9.9999997964380183e-01 0.0000000000000000e+00 0.0000000000000000e+00  9.9999997964380183e-01 0.0000000000000000e+00 0.0000000000000000e+00  9.9999997964380183e-01 0.0000000000000000e+00 0.0000000000000000e+00  9.9999997964380183e-01 0.0000000000000000e+00 0.0000000000000000e+00  9.9999997964380183e-01 0.0000000000000000e+00 0.0000000000000000e+00  9.9999997964380183e-01 0.0000000000000000e+00 0.0000000000000000e+00  9.9999997964380183e-01 0.0000000000000000e+00 0.0000000000000000e+00  9.9999997964380183e-01 0.0000000000000000e+00 0.0000000000000000e+00  9.9999997964380183e-01 0.0000000000000000e+00 0.0000000000000000e+00  9.9999997964380183e-01 0.0000000000000000e+00 0.0000000000000000e+00  9.9999997964380183e-01 0.0000000000000000e+00 0.0000000000000000e+00  9.9999997964380183e-01 0.0000000000000000e+00 0.0000000000000000e+00  9.9999997964380183e-01 0.0000000000000000e+00 0.0000000000000000e+00  9.9999997964380183e-01 0.0000000000000000e+00 0.0000000000000000e+00  9.9999997964380183e-01 0.0000000000000000e+00 0.0000000000000000e+00  9.9999997964380183e-01 0.0000000000000000e+00 0.0000000000000000e+00  9.9999997964380183e-01 0.0000000000000000e+00 0.0000000000000000e+00  3.4382146237050304e-01 3.6648450067639796e-02 0.0000000000000000e+00  2.2927736053840730e-01 -1.7811244007735864e-02 0.0000000000000000e+00  2.4016504350726259e-01 7.7310910551245157e-02 0.0000000000000000e+00  1.7901454444396034e-01 -1.2471784564854184e-01 0.0000000000000000e+00  3.1305305368517578e-01 3.0830294270131287e-01 0.0000000000000000e+00  4.2767999183334326e-01 -2.5950527754875996e-01 0.0000000000000000e+00  3.3191039904243480e-01 -2.7304977934200891e-02 0.0000000000000000e+00  7.0095761375543117e-02 2.0975151056156277e-01 0.0000000000000000e+00  7.8670980691200032e-01 3.0091983194362841e-02 0.0000000000000000e+00  -1.4795088639820733e-01 3.3100417827927253e-01 0.0000000000000000e+00  -4.8835080134859953e-02 -2.1539589111299379e-01 0.0000000000000000e+00  9.0014786692535861e-02 -3.5907123071085079e-01 0.0000000000000000e+00  2.0792545878150243e-01 -7.4739611325525924e-06 0.0000000000000000e+00  -2.5183079944001557e-01 3.0093838874552148e-01 0.0000000000000000e+00  -4.4716004797014669e-01 -3.2961150302091535e-01 0.0000000000000000e+00  -6.9287218454014554e-01 -7.0839875891820211e-02 0.0000000000000000e+00  -5.5182681975875691e-01 -9.2529133266558566e-02 0.0000000000000000e+00  3.3913636046449397e-01 1.9073748604065852e-01 0.0000000000000000e+00  -5.5718019616400150e-01 3.0755992056410741e-01 0.0000000000000000e+00  7.2142911880065674e-01 2.0002062440970289e-01 0.0000000000000000e+00  3.6605106696201828e-01 -2.1656410556742539e-01 0.0000000000000000e+00  7.6929103892819406e-01 -1.6555377276390809e-01 0.0000000000000000e+00  2.0388201196172584e-01 1.1941146846264824e-04 0.0000000000000000e+00  5.1219635607269487e-01 -5.0516520959691537e-02 0.0000000000000000e+00  2.0187338053982309e-01 -4.1384585949704467e-01 0.0000000000000000e+00  -8.6898241270071078e-02 -4.9401927793029016e-01 0.0000000000000000e+00  2.1117611558948304e-01 9.6191879542720325e-03 0.0000000000000000e+00  3.2397346823412770e-01 3.9737854295425251e-01 0.0000000000000000e+00  4.0372037025631767e-02 5.0381103293449681e-01 0.0000000000000000e+00  -5.5938909023264038e-01 -3.4275042258395438e-01 0.0000000000000000e+00  9.1722616565836901e-01 7.7859192163102775e-02 0.0000000000000000e+00  9.4396343198093058e-01 -1.9780814384559434e-02 0.0000000000000000e+00  7.7726006467622377e-01 1.8908219937661341e-01 0.0000000000000000e+00  5.6778983059945309e-01 1.9369204969446555e-01 0.0000000000000000e+00  8.1622705080197255e-01 -1.6462285349411496e-01 0.0000000000000000e+00  6.5510219982829931e-01 -2.1295717885982363e-01 0.0000000000000000e+00  2.1400211590768720e-01 -2.2312627354870548e-02 0.0000000000000000e+00  2.1012930505107028e-01 1.9202225068526174e-02 0.0000000000000000e+00  5.3041600585240367e-01 2.2836708580989704e-01 0.0000000000000000e+00  2.0388065038667907e-01 -6.5857468565799770e-04 0.0000000000000000e+00  -3.4625832572310483e-01 2.1815031839863525e-01 0.0000000000000000e+00  2.0363975649415514e-01 -4.7397673720729982e-05 0.0000000000000000e+00  5.6418121413474687e-01 -2.4723964517147637e-01 0.0000000000000000e+00  1.8701930312189094e-01 -2.4312232266672704e-02 0.0000000000000000e+00  -4.0681107660780058e-01 4.6229747398097543e-01 0.0000000000000000e+00  2.0314171922779650e-01 1.2616174739821977e-03 0.0000000000000000e+00  2.0534558110111442e-01 -6.4836889812008762e-03 0.0000000000000000e+00  1.4031483493480404e-01 1.4078732887597439e-01 0.0000000000000000e+00  1.6350666132160338e-01 -1.1191035472752150e-01 0.0000000000000000e+00  9.1959705691914106e-01 9.2729228475247866e-02 0.0000000000000000e+00  9.4437224106610929e-01 -7.0418495795948430e-02 0.0000000000000000e+00  -2.4742096985909462e-01 -5.6387048636994797e-01 0.0000000000000000e+00  4.7586366949935038e-01 -4.2635428388755653e-01 0.0000000000000000e+00  -9.1910674797488240e-02 -8.7700901558356248e-02 0.0000000000000000e+00  -4.0531922819374511e-01 -4.2614727572548949e-01 0.0000000000000000e+00  2.0259146932914171e-01 -4.9932012844022163e-03 0.0000000000000000e+00  -1.4408508986785548e-01 5.7144864060157519e-01 0.0000000000000000e+00  5.7743813556663659e-01 -7.1741013822046507e-02 0.0000000000000000e+00  -2.8942863399836599e-01 3.0018518031888947e-01 0.0000000000000000e+00  2.5517796632027973e-01 1.3026837055406661e-02 0.0000000000000000e+00  2.0267786856960859e-01 3.2723867337279577e-04 0.0000000000000000e+00  1.8856625031438043e-01 2.3714166251492336e-02 0.0000000000000000e+00  2.1615201554334990e-01 -1.9390234227026487e-03 0.0000000000000000e+00  1.4737277767461027e-01 5.6864253939774491e-02 0.0000000000000000e+00  6.8220619313356612e-01 4.3330182769867359e-02 0.0000000000000000e+00  2.4855256765860706e-01 -6.1646005239713204e-02 0.0000000000000000e+00  -1.3854695033059514e-01 -2.6690058982698700e-01 0.0000000000000000e+00  1.7758368606268449e-01 -5.8525211329910531e-01 0.0000000000000000e+00  1.9943247393019423e-01 5.6889584501541648e-03 0.0000000000000000e+00  9.7551163181353662e-01 2.6270781773634625e-02 0.0000000000000000e+00  3.0033823592649445e-01 5.7382996205454206e-01 0.0000000000000000e+00  4.9766754489587384e-01 4.1885913996706620e-01 0.0000000000000000e+00  8.8255025268711063e-01 1.1329871305897675e-01 0.0000000000000000e+00  5.0999627733787578e-01 1.4126852508250895e-01 0.0000000000000000e+00  2.0370238165054319e-01 3.5597551319357122e-05 0.0000000000000000e+00  8.9709093310211163e-01 -1.0514382416626340e-01 0.0000000000000000e+00  -1.8793107976147144e-01 -2.3490686392470356e-01 0.0000000000000000e+00  2.0223859633039709e-01 3.6246121286534000e-04 0.0000000000000000e+00  9.8111836245089434e-01 -2.2216099062958398e-02 0.0000000000000000e+00  2.4210327712139171e-01 3.8696198170756506e-03 0.0000000000000000e+00  2.0462917767024216e-01 -3.6810249866992834e-05 0.0000000000000000e+00  4.0935156419059204e-01 7.9930690622429953e-02 0.0000000000000000e+00  1.9754001437123278e-01 5.8062592772580874e-03 0.0000000000000000e+00  5.8510887618399665e-01 -6.9535668529831729e-02 0.0000000000000000e+00  2.1858849037810918e-01 2.7458378184002857e-02 0.0000000000000000e+00  -2.3466745331593283e-01 2.7634515966620760e-01 0.0000000000000000e+00  2.6062176690390726e-01 3.7494226801353475e-02 0.0000000000000000e+00  7.4266959456536208e-01 7.9480732604689075e-02 0.0000000000000000e+00  -5.9086660460405484e-02 -6.4065454004899791e-01 0.0000000000000000e+00  2.0200967356789790e-01 -2.8101949696289605e-04 0.0000000000000000e+00  -7.2658018936856172e-01 1.9984033814841026e-01 0.0000000000000000e+00  8.6974200084198205e-02 -6.4759597160052931e-02 0.0000000000000000e+00  6.7631408717712438e-01 2.9234329020684013e-01 0.0000000000000000e+00  -3.1493873541808765e-01 5.3482944032152668e-01 0.0000000000000000e+00  -3.5500310706478633e-01 4.1933356307506270e-01 0.0000000000000000e+00  2.5570708536720055e-01 -5.7413858028030368e-02 0.0000000000000000e+00  2.2437562870497738e-01 4.1281846083597654e-03 0.0000000000000000e+00  7.0228753589396875e-01 -1.8696347693498319e-01 0.0000000000000000e+00  3.0637882041678483e-01 -1.8494550209007649e-01 0.0000000000000000e+00  2.9422689418370118e-01 6.2788351703266645e-02 0.0000000000000000e+00  2.0937857636419729e-01 1.4702932680031267e-01 0.0000000000000000e+00  6.4519267315478679e-01 1.8493368174887270e-01 0.0000000000000000e+00  1.1790663714396414e-01 -2.1531047838039369e-01 0.0000000000000000e+00  2.0090353378402709e-01 -1.2556332455739823e-03 0.0000000000000000e+00  2.0189230493523888e-01 -2.5068268317549715e-05 0.0000000000000000e+00  6.0860020202538598e-02 6.5281229481144021e-01 0.0000000000000000e+00  1.7363122011417889e-01 -3.2309851424948868e-02 0.0000000000000000e+00  -2.7422996436309444e-01 -3.5609823208320074e-01 0.0000000000000000e+00  7.0349474801566325e-01 -1.2292551755550510e-01 0.0000000000000000e+00  1.9293351078823842e-01 -7.6826646121675767e-03 0.0000000000000000e+00  1.7049831061008802e-01 3.4227678735439554e-02 0.0000000000000000e+00  8.9010005261143332e-01 -1.0407545261780279e-01 0.0000000000000000e+00  2.3003848663191384e-01 3.4032168767792154e-01 0.0000000000000000e+00  2.0392961287756009e-01 -1.9942817876120549e-04 0.0000000000000000e+00  1.4778279962484844e-01 -4.4778823624311279e-02 0.0000000000000000e+00  9.3536442570627454e-01 7.6395798866465678e-02 0.0000000000000000e+00  9.6507392913062418e-01 5.1115483605041173e-02 0.0000000000000000e+00  3.4315459536745113e-02 2.1498807045218188e-01 0.0000000000000000e+00  2.3422243595337752e-01 5.7627724477506859e-02 0.0000000000000000e+00  3.9421054517019155e-01 -3.0212579570993875e-01 0.0000000000000000e+00  2.0812884830049086e-01 -1.8343083566682825e-02 0.0000000000000000e+00  9.5258684953590533e-01 -6.3607726150254021e-02 0.0000000000000000e+00  2.1521659190789236e-01 -5.7799265312020801e-03 0.0000000000000000e+00  1.9329177923307109e-01 -1.0152476928716306e-02 0.0000000000000000e+00  4.2145270714081695e-01 -1.7687635562157040e-02 0.0000000000000000e+00  -2.6005178273429103e-01 -3.0954399341083344e-01 0.0000000000000000e+00  -3.4313941049140445e-01 -4.7965030447701174e-01 0.0000000000000000e+00  -1.9480426367452126e-02 6.9057702819180569e-02 0.0000000000000000e+00  2.6679963103849513e-01 -1.2059407853547938e-01 0.0000000000000000e+00  2.0994654311196381e-01 9.0990707678258772e-04 0.0000000000000000e+00  -5.8390849224275132e-01 -1.5943330435357100e-01 0.0000000000000000e+00  2.0490256902343487e-01 -1.7584542497574736e-03 0.0000000000000000e+00  2.1549868132995365e-01 -4.2857957187113389e-02 0.0000000000000000e+00  9.8467662641695874e-01 -7.1718032255669076e-05 0.0000000000000000e+00  9.1549573970731379e-02 1.2341257553988942e-01 0.0000000000000000e+00  8.3910356717383483e-01 -7.6620990220428412e-02 0.0000000000000000e+00  2.0900609270789561e-01 6.1021447342430226e-03 0.0000000000000000e+00  8.6974953486197559e-01 5.2140973260721604e-02 0.0000000000000000e+00  -1.3713313442942018e-01 -7.8771479581193807e-02 0.0000000000000000e+00  1.8796207226735179e-01 1.0445392114100930e-02 0.0000000000000000e+00  3.4327474551356246e-01 -5.7692477857211011e-01 0.0000000000000000e+00  6.2679319086814078e-01 -4.2480563547902245e-01 0.0000000000000000e+00  8.8650894990406015e-01 -8.5838134765522073e-02 0.0000000000000000e+00  2.2228589974667159e-01 2.5041124996398617e-01 0.0000000000000000e+00  1.9886608838888933e-01 -1.2662855966952139e-03 0.0000000000000000e+00  6.4526005667735156e-02 -2.6484495592142232e-01 0.0000000000000000e+00  -6.9218563496505847e-01 8.0496688172970149e-02 0.0000000000000000e+00  2.3364969828037155e-01 -2.4971943682579470e-01 0.0000000000000000e+00  -6.1169911586760439e-01 -1.2156409427151606e-01 0.0000000000000000e+00  2.7288437703518115e-01 -1.7432599577423373e-02 0.0000000000000000e+00  8.8087945025882697e-01 1.0219701217292097e-01 0.0000000000000000e+00  8.2574124280488936e-01 1.2373068225249657e-01 0.0000000000000000e+00  5.7160918940429439e-01 4.1737022186188294e-01 0.0000000000000000e+00  4.8640111329152574e-01 3.0836952568634446e-01 0.0000000000000000e+00  9.8444104432835389e-01 -2.782069903