<?xml version="1.0"?>
<VTKFile type="UnstructuredGrid"  version="0.1"  >
<UnstructuredGrid>
<Piece  NumberOfPoints="622" NumberOfCells="1116">
<Points>
<DataArray  type="Float64"  NumberOfComponents="3"  format="ascii">-6 -2 0  -6 2 0  6 2 0  6 -2 0  -2.8 0 0  -1.2 0 0  -5.500000000001853 -2 0  -5.000000000003705 -2 0  -4.500000000005556 -2 0  -4.000000000007409 -2 0  -3.50000000000926 -2 0  -3.000000000011112 -2 0  -2.500000000012963 -2 0  -2.000000000014814 -2 0  -1.500000000016665 -2 0  -1.000000000018516 -2 0  -0.5000000000203677 -2 0  -2.204547655537681e-11 -2 0  0.4999999999796305 -2 0  0.9999999999814779 -2 0  1.499999999983327 -2 0  1.999999999985175 -2 0  2.499999999987029 -2 0  2.999999999988882 -2 0  3.499999999990735 -2 0  3.999999999992589 -2 0  4.49999999999444 -2 0  4.999999999996293 -2 0  5.499999999998147 -2 0  6 -1.500000000001387 0  6 -1.000000000002774 0  6 -0.5000000000041616 0  6 -5.505595979116151e-12 0  6 0.4999999999958384 0  6 0.9999999999972258 0  6 1.499999999998613 0  5.500000000001853 2 0  5.000000000003705 2 0  4.500000000005556 2 0  4.000000000007409 2 0  3.50000000000926 2 0  3.000000000011112 2 0  2.500000000012963 2 0  2.000000000014814 2 0  1.500000000016665 2 0  1.000000000018516 2 0  0.5000000000203677 2 0  2.204547655537681e-11 2 0  -0.4999999999796305 2 0  -0.9999999999814779 2 0  -1.499999999983327 2 0  -1.999999999985175 2 0  -2.499999999987029 2 0  -2.999999999988882 2 0  -3.499999999990735 2 0  -3.999999999992589 2 0  -4.49999999999444 2 0  -4.999999999996293 2 0  -5.499999999998147 2 0  -6 1.500000000001387 0  -6 1.000000000002774 0  -6 0.5000000000041616 0  -6 5.505595979116151e-12 0  -6 -0.4999999999958384 0  -6 -0.9999999999972258 0  -6 -1.499999999998613 0  -2.796147781337886 -0.07841371226233997 0  -2.784628224322852 -0.1560722576115546 0  -2.765552268586196 -0.2322277418021561 0  -2.739103626009626 -0.30614674589063 0  -2.705537011479457 -0.3771173894593519 0  -2.665175689843037 -0.4444561864141836 0  -2.618408362691456 -0.5075146273293722 0  -2.565685424950688 -0.5656854249477874 0  -2.507514627332613 -0.6184083626887972 0  -2.444456186417533 -0.6651756898407991 0  -2.377117389462776 -0.7055370114776264 0  -2.306146745894456 -0.7391036260080417 0  -2.232227741806235 -0.7655522685849585 0  -2.15607225761588 -0.784628224321992 0  -2.078413712266957 -0.7961477813374315 0  -2.000000000003407 -0.7999999999999998 0  -1.921586287739523 -0.7961477813380696 0  -1.843927742389945 -0.7846282243231506 0  -1.767772258198879 -0.7655522685865098 0  -1.693853254109962 -0.7391036260098718 0  -1.622882610540873 -0.7055370114795768 0  -1.555543813585629 -0.6651756898429115 0  -1.49248537267008 -0.6184083626910072 0  -1.434314575051535 -0.5656854249500112 0  -1.381591637310384 -0.5075146273316149 0  -1.334824310158267 -0.4444561864161359 0  -1.294462988521423 -0.3771173894609975 0  -1.260896373990956 -0.3061467458920351 0  -1.234447731414138 -0.2322277418032578 0  -1.215371775677287 -0.156072257612254 0  -1.203852218662147 -0.07841371226267954 0  -1.203852218662115 0.07841371226235888 0  -1.215371775677132 0.156072257611478 0  -1.234447731413795 0.232227741802127 0  -1.260896373990353 0.3061467458905811 0  -1.294462988520456 0.3771173894591898 0  -1.334824310156812 0.444456186413959 0  -1.381591637308413 0.5075146273292139 0  -1.434314575049147 0.5656854249476236 0  -1.492485372667197 0.6184083626886415 0  -1.555543813582104 0.6651756898405565 0  -1.62288261053673 0.7055370114773629 0  -1.693853254105125 0.7391036260078683 0  -1.767772258193396 0.7655522685848468 0  -1.84392774238373 0.7846282243219146 0  -1.921586287732977 0.7961477813374253 0  -1.999999999996558 0.8 0  -2.078413712260516 0.7961477813380661 0  -2.156072257610207 0.7846282243231205 0  -2.232227741801178 0.7655522685864928 0  -2.306146745890059 0.7391036260098632 0  -2.377117389459098 0.7055370114795929 0  -2.444456186414405 0.6651756898428894 0  -2.50751462732998 0.6184083626909587 0  -2.565685424948549 0.5656854249499272 0  -2.61840836268981 0.5075146273313792 0  -2.665175689841831 0.4444561864159886 0  -2.705537011478692 0.3771173894607835 0  -2.739103626009108 0.3061467458918818 0  -2.76555226858589 0.2322277418031643 0  -2.784628224322724 0.1560722576122001 0  -2.796147781337853 0.07841371226267957 0  0.6720367661319522 0.1312687487860887 0  -4.389489086394485 0.3544472233398538 0  -3.816221554046232 -0.6097988664512611 0  -3.552726516474419 0.9342959806851625 0  -0.2536610443052337 0.8162373554653355 0  -0.1843238977799138 -0.6649951410982842 0  -3.613359951620445 0.1086570650978273 0  -3.146954163409593 -1.074378179335012 0  -0.4255266515582625 0.07734891565364931 0  -0.9413731612925856 1.168014724254929 0  -2.947764053183577 1.200029094390044 0  -0.8319852757411681 -1.058626838707328 0  2.675418990747819 -1.137325591670363e-12 0  -2.602010642259726 -1.287560129290477 0  -2.334401622060699 1.335006108940604 0  -1.524718496628401 1.32890816230333 0  -1.369813829148039 -1.26145150481762 0  -3.294065651892671 -0.4630240940010318 0  -2.072749204569071 -1.388981302138359 0  -0.7546165313921411 0.5601792161340381 0  -3.224879719581335 0.4382689715877901 0  -0.7073137361349826 -0.4625305410752652 0  4.326242945813966 0.3262429458150917 0  -3.187880061217201 0.07437712177460168 0  -2.94792024259867 0.7030255657465158 0  -2.678809277907896 0.9152683582887104 0  -4.911626141576894 -0.5700186648601188 0  -2.980647654587299 -0.5685006168686053 0  -2.769438919323564 -0.8202775213660614 0  -1.936950121013948 1.220669938589229 0  -0.8971643766260747 0.2762459428874499 0  -0.8760878018253068 -0.06836412137772707 0  -1.086827485441145 0.6772548942594016 0  -1.31355927028917 0.8808768148414213 0  -1.034266382739347 -0.5912381576649568 0  -1.241594139118264 -0.836771920085274 0  1.667161185638911 -0.6367996576268693 0  1.778189842800902 0.7191719841256095 0  -3.065106827511819 -0.266795371500425 0  3.714311277362231 -0.7275465302492842 0  -1.728329421201519 -1.09954751473283 0  4.870629493137888 -0.7325040699186681 0  -3.024707894719303 0.2567561910603656 0  -4.375540207252226 1.228935704312058 0  -2.272077148001781 -1.086192861256262 0  3.351408248797803 0.9175227128129597 0  -5.141847419540732 0.8091901960109126 0  0.5769368286199241 1.111816231125821 0  0.7411482978492124 -1.079569101289617 0  -1.074013749991219 0.430231207546053 0  -1.04664573441257 -0.3358382377487088 0  -2.439195336951085 0.9224778883059374 0  -2.902607676587358 0.4360473765597399 0  -1.629450174302152 1.035617385691805 0  -2.146859933125513 1.032375363966426 0  2.587625196444542 -0.9999926061845814 0  -2.529286802957126 -0.8830616815739111 0  -1.493798157676768 -0.8794705728517196 0  -1.932158132383022 -1.026681566564148 0  -4.09956359341904 -0.1372485582942864 0  5.055802064425553 1.050933510837308 0  -4.413659685984891 -1.207626391697488 0  -4.961411026474009 0.1201902955685026 0  -3.771151641156835 -1.303594976371997 0  -3.001321503506133 -0.04919177107285733 0  -3.881733605683001 0.5124517634812003 0  -0.1971627317996802 -1.336445372382849 0  -2.742825060181767 0.6732573903735507 0  2.520439429199979 1.129372838786189 0  -1.026326428668429 0.1384273198437734 0  -2.779290004861729 -0.5844691722665721 0  -2.895095740820851 -0.4261289730972082 0  -1.275682076193407 0.6630703172777138 0  0.1045291701958869 0.3433373435296472 0  5.175560481258801 0.0608563229178163 0  -1.211574424201636 -0.5847362589868093 0  -1.85847006217035 1.007917631940711 0  4.152535916385823 1.131901130662082 0  -1.04878257200685 -0.1253529988863012 0  1.432836501626023 0.05634449574318775 0  3.560672936003603 0.01188897172456759 0  -3.351823698389408 -0.1821329582635926 0  -5.145153363200735 -1.259166339382508 0  0.03473693330309885 -0.1724947236036572 0  -4.377830921337186 -0.6172564090242229 0  -0.3943750728122595 1.410897156959435 0  -1.661073679471639 -0.9342065000197183 0  -1.49086536677686 0.8331714487926741 0  -2.584486130952032 0.7871482690034864 0  4.270535884593893 -1.259607924744415 0  -1.757417028085795 -1.505182186951191 0  -3.430586920998477 1.425579221231371 0  -2.917598827418652 -0.2298465409534677 0  -2.328978331116049 -0.9300959620317677 0  -2.148543000691344 -0.9751580214451921 0  1.002654111360038 -0.4521702885594788 0  -4.628651824080903 -0.1127998710567241 0  -2.948904386702482 0.1555943115410545 0  0.4165242577134774 -0.5629432649478633 0  -3.698137692471105 -0.3173027948676715 0  -3.491400684461791 -0.7926319721650269 0  -0.3844454817728994 0.4680628696134375 0  -3.207830713508533 0.9778749990559993 0  3.229909751065535 -1.326302454776001 0  5.330007715336748 -1.312905173261894 0  -2.649214054100534 -0.713314536278899 0  1.342022964818772 -1.328315248672686 0  -2.556460939068198 1.202372762828344 0  -0.3497819755044588 -0.3080427614060888 0  -4.928440909495523 1.387622767511967 0  1.309170811945155 1.337467055109531 0  -1.352031940181449 -0.7151198948590243 0  -0.6132855723904642 0.9519045895123004 0  4.266838388406324 -0.3707357390867402 0  -3.834389788310238 1.371594798941152 0  -1.187890214580146 0.4851427123079557 0  -1.109118888029193 0.3185947354467283 0  0.1837819401738013 1.234799661476361 0  1.108165254659559 0.6237223548284967 0  -0.5266600156584522 -0.8113991260886402 0  -4.643822083543982 0.7834094684931707 0  -1.146235204666366 -0.4027330721405781 0  2.049029845992713 -0.2664662499985428 0  2.002665761665898 -1.328912351029848 0  -1.678783505586872 0.8978832065736417 0  -2.049499525232052 0.9483890761590005 0  -2.229972236535132 0.9181006323151361 0  -3.033763529945482 -1.54240494280775 0  -3.562344364746847 0.5622550957224539 0  -5.524396842903405 -0.2709714867672603 0  -0.9710982764034376 -1.549038578476423 0  3.058819320130555 -0.5375106252795963 0  -4.170365230099585 0.7342553699229977 0  -1.045878746461381 -8.187420622554697e-05 0  -1.864822945411764 -0.9219031104673102 0  -0.6251005091687033 -0.2120650512195049 0  2.317562622406059 0.4886417799113238 0  -0.6674371191466613 0.1483993095055008 0  -2.705757882979874 1.609712312948224 0  
[...]
<PointData  Vectors="f_22"> 
<DataArray  type="Float64"  Name="f_22"  NumberOfComponents="3" format="ascii">0.0000000000000000e+00 0.0000000000000000e+00 0.0000000000000000e+00  0.0000000000000000e+00 0.0000000000000000e+00 0.0000000000000000e+00  0.0000000000000000e+00 0.0000000000000000e+00 0.0000000000000000e+00  0.0000000000000000e+00 0.0000000000000000e+00 0.0000000000000000e+00  9.9999997848892719e-01 0.0000000000000000e+00 0.0000000000000000e+00  9.9999997848892719e-01 0.0000000000000000e+00 0.0000000000000000e+00  0.0000000000000000e+00 0.0000000000000000e+00 0.0000000000000000e+00  0.0000000000000000e+00 0.0000000000000000e+00 0.0000000000000000e+00  0.0000000000000000e+00 0.0000000000000000e+00 0.0000000000000000e+00  0.0000000000000000e+00 0.0000000000000000e+00 0.0000000000000000e+00  0.0000000000000000e+00 0.0000000000000000e+00 0.0000000000000000e+00  0.0000000000000000e+00 0.0000000000000000e+00 0.0000000000000000e+00  0.0000000000000000e+00 0.0000000000000000e+00 0.0000000000000000e+00  0.0000000000000000e+00 0.0000000000000000e+00 0.0000000000000000e+00  0.0000000000000000e+00 0.0000000000000000e+00 0.0000000000000000e+00  0.0000000000000000e+00 0.0000000000000000e+00 0.0000000000000000e+00  0.0000000000000000e+00 0.0000000000000000e+00 0.0000000000000000e+00  0.0000000000000000e+00 0.0000000000000000e+00 0.0000000000000000e+00  0.0000000000000000e+00 0.0000000000000000e+00 0.0000000000000000e+00  0.0000000000000000e+00 0.0000000000000000e+00 0.0000000000000000e+00  0.0000000000000000e+00 0.0000000000000000e+00 0.0000000000000000e+00  0.0000000000000000e+00 0.0000000000000000e+00 0.0000000000000000e+00  0.0000000000000000e+00 0.0000000000000000e+00 0.0000000000000000e+00  0.0000000000000000e+00 0.0000000000000000e+00 0.0000000000000000e+00  0.0000000000000000e+00 0.0000000000000000e+00 0.0000000000000000e+00  0.0000000000000000e+00 0.0000000000000000e+00 0.0000000000000000e+00  0.0000000000000000e+00 0.0000000000000000e+00 0.0000000000000000e+00  0.0000000000000000e+00 0.0000000000000000e+00 0.0000000000000000e+00  0.0000000000000000e+00 0.0000000000000000e+00 0.0000000000000000e+00  2.3508044639676198e-01 2.2766081161556734e-04 0.0000000000000000e+00  2.4647506980305650e-01 2.0615601097171866e-04 0.0000000000000000e+00  2.4723533113723334e-01 7.8907391082504995e-06 0.0000000000000000e+00  2.4726348027714046e-01 1.0605614116781377e-05 0.0000000000000000e+00  2.4720567894210457e-01 -1.2008288857413264e-05 0.0000000000000000e+00  2.4693822283403719e-01 1.8811850967952569e-04 0.0000000000000000e+00  2.3590114171507603e-01 -3.6523478553161635e-04 0.0000000000000000e+00  0.0000000000000000e+00 0.0000000000000000e+00 0.0000000000000000e+00  0.0000000000000000e+00 0.0000000000000000e+00 0.0000000000000000e+00  0.0000000000000000e+00 0.0000000000000000e+00 0.0000000000000000e+00  0.0000000000000000e+00 0.0000000000000000e+00 0.0000000000000000e+00  0.0000000000000000e+00 0.0000000000000000e+00 0.0000000000000000e+00  0.0000000000000000e+00 0.0000000000000000e+00 0.0000000000000000e+00  0.0000000000000000e+00 0.0000000000000000e+00 0.0000000000000000e+00  0.0000000000000000e+00 0.0000000000000000e+00 0.0000000000000000e+00  0.0000000000000000e+00 0.0000000000000000e+00 0.0000000000000000e+00  0.0000000000000000e+00 0.0000000000000000e+00 0.0000000000000000e+00  0.0000000000000000e+00 0.0000000000000000e+00 0.0000000000000000e+00  0.0000000000000000e+00 0.0000000000000000e+00 0.0000000000000000e+00  0.0000000000000000e+00 0.0000000000000000e+00 0.0000000000000000e+00  0.0000000000000000e+00 0.0000000000000000e+00 0.0000000000000000e+00  0.0000000000000000e+00 0.0000000000000000e+00 0.0000000000000000e+00  0.0000000000000000e+00 0.0000000000000000e+00 0.0000000000000000e+00  0.0000000000000000e+00 0.0000000000000000e+00 0.0000000000000000e+00  0.0000000000000000e+00 0.0000000000000000e+00 0.0000000000000000e+00  0.0000000000000000e+00 0.0000000000000000e+00 0.0000000000000000e+00  0.0000000000000000e+00 0.0000000000000000e+00 0.0000000000000000e+00  0.0000000000000000e+00 0.0000000000000000e+00 0.0000000000000000e+00  0.0000000000000000e+00 0.0000000000000000e+00 0.0000000000000000e+00  0.0000000000000000e+00 0.0000000000000000e+00 0.0000000000000000e+00  2.3164803658141755e-01 -7.9403867167477347e-04 0.0000000000000000e+00  2.4482623346801669e-01 -8.8387651204271088e-04 0.0000000000000000e+00  2.5179507695657133e-01 -1.0023236445717543e-03 0.0000000000000000e+00  2.5511045271760358e-01 5.8057651540606740e-04 0.0000000000000000e+00  2.5243382947944482e-01 5.5806624393067001e-04 0.0000000000000000e+00  2.4541743585351572e-01 9.6786564235261060e-04 0.0000000000000000e+00  2.3130796028444126e-01 7.1748671643871210e-04 0.0000000000000000e+00  9.9999997848892719e-01 0.0000000000000000e+00 0.0000000000000000e+00  9.9999997848892719e-01 0.0000000000000000e+00 0.0000000000000000e+00  9.9999997848892719e-01 0.0000000000000000e+00 0.0000000000000000e+00  9.9999997848892719e-01 0.0000000000000000e+00 0.0000000000000000e+00  9.9999997848892719e-01 0.0000000000000000e+00 0.0000000000000000e+00  9.9999997848892719e-01 0.0000000000000000e+00 0.0000000000000000e+00  9.9999997848892719e-01 0.0000000000000000e+00 0.0000000000000000e+00  9.9999997848892719e-01 0.0000000000000000e+00 0.0000000000000000e+00  9.9999997848892719e-01 0.0000000000000000e+00 0.0000000000000000e+00  9.9999997848892719e-01 0.0000000000000000e+00 0.0000000000000000e+00  9.9999997848892719e-01 0.0000000000000000e+00 0.0000000000000000e+00  9.9999997848892719e-01 0.0000000000000000e+00 0.0000000000000000e+00  9.9999997848892719e-01 0.0000000000000000e+00 0.0000000000000000e+00  9.9999997848892719e-01 0.0000000000000000e+00 0.0000000000000000e+00  9.9999997848892719e-01 0.0000000000000000e+00 0.0000000000000000e+00  9.9999997848892719e-01 0.0000000000000000e+00 0.0000000000000000e+00  9.9999997848892719e-01 0.0000000000000000e+00 0.0000000000000000e+00  9.9999997848892719e-01 0.0000000000000000e+00 0.0000000000000000e+00  9.9999997848892719e-01 0.0000000000000000e+00 0.0000000000000000e+00  9.9999997848892719e-01 0.0000000000000000e+00 0.0000000000000000e+00  9.9999997848892719e-01 0.0000000000000000e+00 0.0000000000000000e+00  9.9999997848892719e-01 0.0000000000000000e+00 0.0000000000000000e+00  9.9999997848892719e-01 0.0000000000000000e+00 0.0000000000000000e+00  9.9999997848892719e-01 0.0000000000000000e+00 0.0000000000000000e+00  9.9999997848892719e-01 0.0000000000000000e+00 0.0000000000000000e+00  9.9999997848892719e-01 0.0000000000000000e+00 0.0000000000000000e+00  9.9999997848892719e-01 0.0000000000000000e+00 0.0000000000000000e+00  9.9999997848892719e-01 0.0000000000000000e+00 0.0000000000000000e+00  9.9999997848892719e-01 0.0000000000000000e+00 0.0000000000000000e+00  9.9999997848892719e-01 0.0000000000000000e+00 0.0000000000000000e+00  9.9999997848892719e-01 0.0000000000000000e+00 0.0000000000000000e+00  9.9999997848892719e-01 0.0000000000000000e+00 0.0000000000000000e+00  9.9999997848892719e-01 0.0000000000000000e+00 0.0000000000000000e+00  9.9999997848892719e-01 0.0000000000000000e+00 0.0000000000000000e+00  9.9999997848892719e-01 0.0000000000000000e+00 0.0000000000000000e+00  9.9999997848892719e-01 0.0000000000000000e+00 0.0000000000000000e+00  9.9999997848892719e-01 0.0000000000000000e+00 0.0000000000000000e+00  9.9999997848892719e-01 0.0000000000000000e+00 0.0000000000000000e+00  9.9999997848892719e-01 0.0000000000000000e+00 0.0000000000000000e+00  9.9999997848892719e-01 0.0000000000000000e+00 0.0000000000000000e+00  9.9999997848892719e-01 0.0000000000000000e+00 0.0000000000000000e+00  9.9999997848892719e-01 0.0000000000000000e+00 0.0000000000000000e+00  9.9999997848892719e-01 0.0000000000000000e+00 0.0000000000000000e+00  9.9999997848892719e-01 0.0000000000000000e+00 0.0000000000000000e+00  9.9999997848892719e-01 0.0000000000000000e+00 0.0000000000000000e+00  9.9999997848892719e-01 0.0000000000000000e+00 0.0000000000000000e+00  9.9999997848892719e-01 0.0000000000000000e+00 0.0000000000000000e+00  9.9999997848892719e-01 0.0000000000000000e+00 0.0000000000000000e+00  9.9999997848892719e-01 0.0000000000000000e+00 0.0000000000000000e+00  9.9999997848892719e-01 0.0000000000000000e+00 0.0000000000000000e+00  9.9999997848892719e-01 0.0000000000000000e+00 0.0000000000000000e+00  9.9999997848892719e-01 0.0000000000000000e+00 0.0000000000000000e+00  9.9999997848892719e-01 0.0000000000000000e+00 0.0000000000000000e+00  9.9999997848892719e-01 0.0000000000000000e+00 0.0000000000000000e+00  9.9999997848892719e-01 0.0000000000000000e+00 0.0000000000000000e+00  9.9999997848892719e-01 0.0000000000000000e+00 0.0000000000000000e+00  9.9999997848892719e-01 0.0000000000000000e+00 0.0000000000000000e+00  9.9999997848892719e-01 0.0000000000000000e+00 0.0000000000000000e+00  9.9999997848892719e-01 0.0000000000000000e+00 0.0000000000000000e+00  9.9999997848892719e-01 0.0000000000000000e+00 0.0000000000000000e+00  9.9999997848892719e-01 0.0000000000000000e+00 0.0000000000000000e+00  9.9999997848892719e-01 0.0000000000000000e+00 0.0000000000000000e+00  4.7830690509808649e-01 3.9589005399817689e-02 0.0000000000000000e+00  2.6914596911213745e-01 -1.4646998638941254e-02 0.0000000000000000e+00  2.7610829443861129e-01 6.6793520042174620e-02 0.0000000000000000e+00  2.2009642698755363e-01 -1.0186962316573839e-01 0.0000000000000000e+00  4.1403219790640738e-01 2.4117964768255201e-01 0.0000000000000000e+00  5.2266108356723373e-01 -1.9936105834098103e-01 0.0000000000000000e+00  3.5899488809000513e-01 -2.4339314415990142e-02 0.0000000000000000e+00  1.1375047781417179e-01 1.6511901706138804e-01 0.0000000000000000e+00  8.2765832892177982e-01 2.3521430570191720e-02 0.0000000000000000e+00  -2.9985317427011327e-02 3.0031451935096881e-01 0.0000000000000000e+00  1.5336704614096457e-02 -1.6457592564188894e-01 0.0000000000000000e+00  2.1331147492538402e-01 -3.3410847979791536e-01 0.0000000000000000e+00  2.5415760717775332e-01 -8.5800311901810842e-05 0.0000000000000000e+00  -1.8083172065148287e-01 2.9067112941213252e-01 0.0000000000000000e+00  -3.8733924728730107e-01 -3.5668526079338708e-01 0.0000000000000000e+00  -5.7836383348390752e-01 -1.3679144607896324e-01 0.0000000000000000e+00  -4.2904664731215347e-01 -1.5652481152804328e-02 0.0000000000000000e+00  3.5986694079724779e-01 1.7573300495680194e-01 0.0000000000000000e+00  -5.2403768585345889e-01 3.4563941325415715e-01 0.0000000000000000e+00  7.7045143806494454e-01 1.6735861649384107e-01 0.0000000000000000e+00  3.8338259160977045e-01 -2.0013879835708548e-01 0.0000000000000000e+00  8.0874499374662778e-01 -1.3661203995135526e-01 0.0000000000000000e+00  2.4754268660084330e-01 1.8525603964860058e-04 0.0000000000000000e+00  5.2682674559566633e-01 -4.7931395369907433e-02 0.0000000000000000e+00  2.0514575452920358e-01 -3.8110110875659886e-01 0.0000000000000000e+00  -8.1736664029301118e-02 -4.8820805954055041e-01 0.0000000000000000e+00  2.5401146900281468e-01 7.4823571966125234e-03 0.0000000000000000e+00  3.3141182604101022e-01 3.7567690407645926e-01 0.0000000000000000e+00  4.3091211062509620e-02 4.8544727896162554e-01 0.0000000000000000e+00  -4.7184270226761454e-01 -3.6966610051202398e-01 0.0000000000000000e+00  9.3173068883029786e-01 6.3815979114982227e-02 0.0000000000000000e+00  9.5393422846307097e-01 -1.6441172934426679e-02 0.0000000000000000e+00  8.4247576346709852e-01 1.5761828058848018e-01 0.0000000000000000e+00  6.4373392741970836e-01 1.3234929445756671e-01 0.0000000000000000e+00  8.6072861378897569e-01 -1.3706725362703448e-01 0.0000000000000000e+00  7.3828723588831358e-01 -1.5968183608764247e-01 0.0000000000000000e+00  2.6356492484281513e-01 -3.8043145807389496e-02 0.0000000000000000e+00  2.5690313808709364e-01 3.3419032123795711e-02 0.0000000000000000e+00  5.4189548936792531e-01 2.1878970968019901e-01 0.0000000000000000e+00  2.4745251926735654e-01 -1.0548256031510780e-03 0.0000000000000000e+00  -2.1590861023865418e-01 2.2239975481217750e-01 0.0000000000000000e+00  2.4714092629242387e-01 -1.6460008445365345e-04 0.0000000000000000e+00  5.7319663760575656e-01 -2.3863256886012410e-01 0.0000000000000000e+00  2.3269209087011386e-01 -1.9376184982298001e-02 0.0000000000000000e+00  -3.6673771921824949e-01 4.9657465153029362e-01 0.0000000000000000e+00  2.4614539903817095e-01 1.8684173927877340e-03 0.0000000000000000e+00  2.4879391276618995e-01 -4.4298558665238933e-03 0.0000000000000000e+00  1.2703997274339526e-01 2.0098370179453440e-01 0.0000000000000000e+00  1.6595561997569186e-01 -1.7498216992741053e-01 0.0000000000000000e+00  9.3546215498206298e-01 7.6228557499473187e-02 0.0000000000000000e+00  9.5449980645035881e-01 -5.8095343965319783e-02 0.0000000000000000e+00  -2.3518080912178418e-01 -5.8770347544317636e-01 0.0000000000000000e+00  4.7772590770544815e-01 -4.1279087004134712e-01 0.0000000000000000e+00  1.2712253449632139e-02 -1.1878042370616716e-01 0.0000000000000000e+00  -3.4731207354021271e-01 -4.3693434466026426e-01 0.0000000000000000e+00  2.4464171409090352e-01 -7.9268716391691935e-03 0.0000000000000000e+00  -1.3471943233907152e-01 5.8316145894911020e-01 0.0000000000000000e+00  6.2185326098316918e-01 -3.5350526511008458e-02 0.0000000000000000e+00  -2.0205546577654274e-01 2.9640230963426756e-01 0.0000000000000000e+00  2.9123416503032595e-01 1.1488401809353314e-02 0.0000000000000000e+00  2.4572478350849430e-01 3.5966810736047728e-04 0.0000000000000000e+00  2.3362969415278137e-01 1.9124942846371052e-02 0.0000000000000000e+00  2.5881715815837464e-01 -1.2258658868340481e-03 0.0000000000000000e+00  1.9752820975326599e-01 4.3726551481436490e-02 0.0000000000000000e+00  6.9040444560227365e-01 4.1270435843843455e-02 0.0000000000000000e+00  2.8422484939020354e-01 -5.2760009673571126e-02 0.0000000000000000e+00  -1.2028045447543703e-01 -2.5868807223393991e-01 0.0000000000000000e+00  1.6639215056372508e-01 -5.7383448503812362e-01 0.0000000000000000e+00  2.4092381226764054e-01 8.7777230275169482e-03 0.0000000000000000e+00  9.7983565537417050e-01 2.1427210529738842e-02 0.0000000000000000e+00  2.9769017533175518e-01 5.6039185156266125e-01 0.0000000000000000e+00  5.0242724541839212e-01 4.0497530553822886e-01 0.0000000000000000e+00  9.2576646022530162e-01 8.6216432321404524e-02 0.0000000000000000e+00  6.1007966318086726e-01 1.0554153264971305e-01 0.0000000000000000e+00  2.4731744770602609e-01 7.4222202030065456e-05 0.0000000000000000e+00  9.2657705078047503e-01 -8.3545646647029431e-02 0.0000000000000000e+00  -1.0600696692644897e-01 -2.3784804938589305e-01 0.0000000000000000e+00  2.4525974382276491e-01 5.4504819193026987e-04 0.0000000000000000e+00  9.8444898089605570e-01 -1.8410613005315699e-02 0.0000000000000000e+00  3.1178158794187161e-01 7.5262568812277456e-03 0.0000000000000000e+00  2.4864038927324927e-01 -2.2213253113687381e-05 0.0000000000000000e+00  4.2971157320674763e-01 7.4425856544556732e-02 0.0000000000000000e+00  2.4022855660011527e-01 4.3324565958706802e-03 0.0000000000000000e+00  6.7157644025444063e-01 -5.3344907740396803e-02 0.0000000000000000e+00  2.5963853498393485e-01 2.3035066302090988e-02 0.0000000000000000e+00  -2.1421651015782628e-01 2.5712409225076760e-01 0.0000000000000000e+00  3.1390156631465094e-01 5.4799895964292779e-02 0.0000000000000000e+00  7.8140908533652309e-01 4.5939471317024590e-02 0.0000000000000000e+00  -6.6048457714256242e-02 -6.5220968905241439e-01 0.0000000000000000e+00  2.4459193321223324e-01 -3.4922379582438666e-04 0.0000000000000000e+00  -7.1308670829206855e-01 2.3941732881028777e-01 0.0000000000000000e+00  1.4857909484662674e-01 -4.3948211289396494e-02 0.0000000000000000e+00  6.8288388122881583e-01 2.8338242923569323e-01 0.0000000000000000e+00  -2.8039718705364786e-01 5.4644059289952585e-01 0.0000000000000000e+00  -2.9282350534326629e-01 4.1316725970182366e-01 0.0000000000000000e+00  3.3781357321454220e-01 -1.0074157316755687e-01 0.0000000000000000e+00  2.6528024213505730e-01 3.5969866851181058e-03 0.0000000000000000e+00  7.0869064696410355e-01 -1.8174736831069802e-01 0.0000000000000000e+00  4.3131511358862490e-01 -1.6223711952277425e-01 0.0000000000000000e+00  3.2449428503037236e-01 5.6141707543043512e-02 0.0000000000000000e+00  2.4421366366463668e-01 1.2560791981180766e-01 0.0000000000000000e+00  7.0409662311430488e-01 1.4552931577230044e-01 0.0000000000000000e+00  1.5555210419802010e-01 -1.7262364959657417e-01 0.0000000000000000e+00  2.4203148801314911e-01 -1.8080421479215356e-03 0.0000000000000000e+00  2.4403132967055780e-01 -1.1011175414437933e-04 0.0000000000000000e+00  5.8453912239113920e-02 6.5149166258185998e-01 0.0000000000000000e+00  1.9358988771647459e-01 -5.1923019218959213e-02 0.0000000000000000e+00  -2.2385197186493627e-01 -3.5936315331172280e-01 0.0000000000000000e+00  7.5790957693255767e-01 -9.6226729482076098e-02 0.0000000000000000e+00  2.3448939552973630e-01 -5.7645810735987386e-03 0.0000000000000000e+00  1.8773868489090367e-01 5.3274721665637806e-02 0.0000000000000000e+00  9.3433808440275534e-01 -7.4751838413566640e-02 0.0000000000000000e+00  3.4240086132090919e-01 2.9973159026567664e-01 0.0000000000000000e+00  2.4758538862722859e-01 -2.7660734016450806e-04 0.0000000000000000e+00  1.9809188700703562e-01 -3.3355800880585165e-02 0.0000000000000000e+00  9.4985943397691064e-01 6.1772456339814312e-02 0.0000000000000000e+00  9.7149857541130336e-01 4.1886987812809390e-02 0.0000000000000000e+00  2.0178294120558028e-02 2.4803915724372519e-01 0.0000000000000000e+00  2.9163566955260239e-01 1.0361775424298067e-01 0.0000000000000000e+00  4.8746476437806463e-01 -2.5600510210347782e-01 0.0000000000000000e+00  2.5117278347974742e-01 -1.4528732127594065e-02 0.0000000000000000e+00  9.6199064859367012e-01 -5.2120934611848899e-02 0.0000000000000000e+00  2.6652779035002733e-01 -1.0034176621474213e-02 0.0000000000000000e+00  2.2825210767529622e-01 -1.5905400762985623e-02 0.0000000000000000e+00  4.5658301268506513e-01 -3.0159389516480284e-02 0.0000000000000000e+00  -2.0461427826882603e-01 -3.0626790092908796e-01 0.0000000000000000e+00  -3.0521779464262488e-01 -4.8368472937522289e-01 0.0000000000000000e+00  6.8735816515627005e-02 4.1011261791943331e-02 0.0000000000000000e+00  2.9738828187412630e-01 -1.0580420056500341e-01 0.0000000000000000e+00  2.5411219437591659e-01 7.2901922428165436e-04 0.0000000000000000e+00  -5.9466276729499190e-01 -1.3298214974135378e-01 0.0000000000000000e+00  2.4913418495579123e-01 -2.8225777830559453e-03 0.0000000000000000e+00  2.5668776841124219e-01 -3.5447699084527863e-02 0.0000000000000000e+00  9.8738163493301945e-01 -2.0047203785877841e-04 0.0000000000000000e+00  1.3633888626617283e-01 1.1839408101332297e-01 0.0000000000000000e+00  8.6797605024575264e-01 -6.1947086825200878e-02 0.0000000000000000e+00  2.5549485299441982e-01 1.0154857010083458e-02 0.0000000000000000e+00  8.9327907037849164e-01 4.1884443725185357e-02 0.0000000000000000e+00  -5.6785065720333970e-03 -6.1374580168965416e-02 0.0000000000000000e+00  2.2081793061826177e-01 1.6473106859753863e-02 0.0000000000000000e+00  3.3703548215952134e-01 -5.6354320193467389e-01 0.0000000000000000e+00  6.3058392270572150e-01 -4.1556845303060330e-01 0.0000000000000000e+00  9.0631576262980973e-01 -7.0691443563578898e-02 0.0000000000000000e+00  2.4485453533687759e-01 2.2268859584279607e-01 0.0000000000000000e+00  2.4118237578019899e-01 -1.0441495445824170e-03 0.0000000000000000e+00  1.2214412206847339e-01 -2.5516654631973174e-01 0.0000000000000000e+00  -7.4170706287536647e-01 6.1993649931344000e-02 0.0000000000000000e+00  2.5521586499665666e-01 -2.2103590195255757e-01 0.0000000000000000e+00  -5.5379104949689595e-01 -1.5991527157407037e-01 0.0000000000000000e+00  3.0655985890933757e-01 -1.4895110081938582e-02 0.0000000000000000e+00  9.2832553322527556e-01 6.9362717523576561e-02 0.0000000000000000e+00  8.5532870268135497e-01 1.0100049701794854e-01 0.0000000000000000e+00  5.7196227517847631e-01 4.0734464826300731e-01 0.0000000000000000e+00  5.9365921104682551e-01 2.7839886573599931e-01 0.0000000000000000e+00  9.8718651707544369e-01 -2.296070040721