<?xml version="1.0"?>
<VTKFile type="UnstructuredGrid"  version="0.1"  >
<UnstructuredGrid>
<Piece  NumberOfPoints="622" NumberOfCells="1116">
<Points>
<DataArray  type="Float64"  NumberOfComponents="3"  format="ascii">-6 -2 0  -6 2 0  6 2 0  6 -2 0  -2.8 0 0  -1.2 0 0  -5.500000000001853 -2 0  -5.000000000003705 -2 0  -4.500000000005556 -2 0  -4.000000000007409 -2 0  -3.50000000000926 -2 0  -3.000000000011112 -2 0  -2.500000000012963 -2 0  -2.000000000014814 -2 0  -1.500000000016665 -2 0  -1.000000000018516 -2 0  -0.5000000000203677 -2 0  -2.204547655537681e-11 -2 0  0.4999999999796305 -2 0  0.9999999999814779 -2 0  1.499999999983327 -2 0  1.999999999985175 -2 0  2.499999999987029 -2 0  2.999999999988882 -2 0  3.499999999990735 -2 0  3.999999999992589 -2 0  4.49999999999444 -2 0  4.999999999996293 -2 0  5.499999999998147 -2 0  6 -1.500000000001387 0  6 -1.000000000002774 0  6 -0.5000000000041616 0  6 -5.505595979116151e-12 0  6 0.4999999999958384 0  6 0.9999999999972258 0  6 1.499999999998613 0  5.500000000001853 2 0  5.000000000003705 2 0  4.500000000005556 2 0  4.000000000007409 2 0  3.50000000000926 2 0  3.000000000011112 2 0  2.500000000012963 2 0  2.000000000014814 2 0  1.500000000016665 2 0  1.000000000018516 2 0  0.5000000000203677 2 0  2.204547655537681e-11 2 0  -0.4999999999796305 2 0  -0.9999999999814779 2 0  -1.499999999983327 2 0  -1.999999999985175 2 0  -2.499999999987029 2 0  -2.999999999988882 2 0  -3.499999999990735 2 0  -3.999999999992589 2 0  -4.49999999999444 2 0  -4.999999999996293 2 0  -5.499999999998147 2 0  -6 1.500000000001387 0  -6 1.000000000002774 0  -6 0.5000000000041616 0  -6 5.505595979116151e-12 0  -6 -0.4999999999958384 0  -6 -0.9999999999972258 0  -6 -1.499999999998613 0  -2.796147781337886 -0.07841371226233997 0  -2.784628224322852 -0.1560722576115546 0  -2.765552268586196 -0.2322277418021561 0  -2.739103626009626 -0.30614674589063 0  -2.705537011479457 -0.3771173894593519 0  -2.665175689843037 -0.4444561864141836 0  -2.618408362691456 -0.5075146273293722 0  -2.565685424950688 -0.5656854249477874 0  -2.507514627332613 -0.6184083626887972 0  -2.444456186417533 -0.6651756898407991 0  -2.377117389462776 -0.7055370114776264 0  -2.306146745894456 -0.7391036260080417 0  -2.232227741806235 -0.7655522685849585 0  -2.15607225761588 -0.784628224321992 0  -2.078413712266957 -0.7961477813374315 0  -2.000000000003407 -0.7999999999999998 0  -1.921586287739523 -0.7961477813380696 0  -1.843927742389945 -0.7846282243231506 0  -1.767772258198879 -0.7655522685865098 0  -1.693853254109962 -0.7391036260098718 0  -1.622882610540873 -0.7055370114795768 0  -1.555543813585629 -0.6651756898429115 0  -1.49248537267008 -0.6184083626910072 0  -1.434314575051535 -0.5656854249500112 0  -1.381591637310384 -0.5075146273316149 0  -1.334824310158267 -0.4444561864161359 0  -1.294462988521423 -0.3771173894609975 0  -1.260896373990956 -0.3061467458920351 0  -1.234447731414138 -0.2322277418032578 0  -1.215371775677287 -0.156072257612254 0  -1.203852218662147 -0.07841371226267954 0  -1.203852218662115 0.07841371226235888 0  -1.215371775677132 0.156072257611478 0  -1.234447731413795 0.232227741802127 0  -1.260896373990353 0.3061467458905811 0  -1.294462988520456 0.3771173894591898 0  -1.334824310156812 0.444456186413959 0  -1.381591637308413 0.5075146273292139 0  -1.434314575049147 0.5656854249476236 0  -1.492485372667197 0.6184083626886415 0  -1.555543813582104 0.6651756898405565 0  -1.62288261053673 0.7055370114773629 0  -1.693853254105125 0.7391036260078683 0  -1.767772258193396 0.7655522685848468 0  -1.84392774238373 0.7846282243219146 0  -1.921586287732977 0.7961477813374253 0  -1.999999999996558 0.8 0  -2.078413712260516 0.7961477813380661 0  -2.156072257610207 0.7846282243231205 0  -2.232227741801178 0.7655522685864928 0  -2.306146745890059 0.7391036260098632 0  -2.377117389459098 0.7055370114795929 0  -2.444456186414405 0.6651756898428894 0  -2.50751462732998 0.6184083626909587 0  -2.565685424948549 0.5656854249499272 0  -2.61840836268981 0.5075146273313792 0  -2.665175689841831 0.4444561864159886 0  -2.705537011478692 0.3771173894607835 0  -2.739103626009108 0.3061467458918818 0  -2.76555226858589 0.2322277418031643 0  -2.784628224322724 0.1560722576122001 0  -2.796147781337853 0.07841371226267957 0  0.6720367661319522 0.1312687487860887 0  -4.389489086394485 0.3544472233398538 0  -3.816221554046232 -0.6097988664512611 0  -3.552726516474419 0.9342959806851625 0  -0.2536610443052337 0.8162373554653355 0  -0.1843238977799138 -0.6649951410982842 0  -3.613359951620445 0.1086570650978273 0  -3.146954163409593 -1.074378179335012 0  -0.4255266515582625 0.07734891565364931 0  -0.9413731612925856 1.168014724254929 0  -2.947764053183577 1.200029094390044 0  -0.8319852757411681 -1.058626838707328 0  2.675418990747819 -1.137325591670363e-12 0  -2.602010642259726 -1.287560129290477 0  -2.334401622060699 1.335006108940604 0  -1.524718496628401 1.32890816230333 0  -1.369813829148039 -1.26145150481762 0  -3.294065651892671 -0.4630240940010318 0  -2.072749204569071 -1.388981302138359 0  -0.7546165313921411 0.5601792161340381 0  -3.224879719581335 0.4382689715877901 0  -0.7073137361349826 -0.4625305410752652 0  4.326242945813966 0.3262429458150917 0  -3.187880061217201 0.07437712177460168 0  -2.94792024259867 0.7030255657465158 0  -2.678809277907896 0.9152683582887104 0  -4.911626141576894 -0.5700186648601188 0  -2.980647654587299 -0.5685006168686053 0  -2.769438919323564 -0.8202775213660614 0  -1.936950121013948 1.220669938589229 0  -0.8971643766260747 0.2762459428874499 0  -0.8760878018253068 -0.06836412137772707 0  -1.086827485441145 0.6772548942594016 0  -1.31355927028917 0.8808768148414213 0  -1.034266382739347 -0.5912381576649568 0  -1.241594139118264 -0.836771920085274 0  1.667161185638911 -0.6367996576268693 0  1.778189842800902 0.7191719841256095 0  -3.065106827511819 -0.266795371500425 0  3.714311277362231 -0.7275465302492842 0  -1.728329421201519 -1.09954751473283 0  4.870629493137888 -0.7325040699186681 0  -3.024707894719303 0.2567561910603656 0  -4.375540207252226 1.228935704312058 0  -2.272077148001781 -1.086192861256262 0  3.351408248797803 0.9175227128129597 0  -5.141847419540732 0.8091901960109126 0  0.5769368286199241 1.111816231125821 0  0.7411482978492124 -1.079569101289617 0  -1.074013749991219 0.430231207546053 0  -1.04664573441257 -0.3358382377487088 0  -2.439195336951085 0.9224778883059374 0  -2.902607676587358 0.4360473765597399 0  -1.629450174302152 1.035617385691805 0  -2.146859933125513 1.032375363966426 0  2.587625196444542 -0.9999926061845814 0  -2.529286802957126 -0.8830616815739111 0  -1.493798157676768 -0.8794705728517196 0  -1.932158132383022 -1.026681566564148 0  -4.09956359341904 -0.1372485582942864 0  5.055802064425553 1.050933510837308 0  -4.413659685984891 -1.207626391697488 0  -4.961411026474009 0.1201902955685026 0  -3.771151641156835 -1.303594976371997 0  -3.001321503506133 -0.04919177107285733 0  -3.881733605683001 0.5124517634812003 0  -0.1971627317996802 -1.336445372382849 0  -2.742825060181767 0.6732573903735507 0  2.520439429199979 1.129372838786189 0  -1.026326428668429 0.1384273198437734 0  -2.779290004861729 -0.5844691722665721 0  -2.895095740820851 -0.4261289730972082 0  -1.275682076193407 0.6630703172777138 0  0.1045291701958869 0.3433373435296472 0  5.175560481258801 0.0608563229178163 0  -1.211574424201636 -0.5847362589868093 0  -1.85847006217035 1.007917631940711 0  4.152535916385823 1.131901130662082 0  -1.04878257200685 -0.1253529988863012 0  1.432836501626023 0.05634449574318775 0  3.560672936003603 0.01188897172456759 0  -3.351823698389408 -0.1821329582635926 0  -5.145153363200735 -1.259166339382508 0  0.03473693330309885 -0.1724947236036572 0  -4.377830921337186 -0.6172564090242229 0  -0.3943750728122595 1.410897156959435 0  -1.661073679471639 -0.9342065000197183 0  -1.49086536677686 0.8331714487926741 0  -2.584486130952032 0.7871482690034864 0  4.270535884593893 -1.259607924744415 0  -1.757417028085795 -1.505182186951191 0  -3.430586920998477 1.425579221231371 0  -2.917598827418652 -0.2298465409534677 0  -2.328978331116049 -0.9300959620317677 0  -2.148543000691344 -0.9751580214451921 0  1.002654111360038 -0.4521702885594788 0  -4.628651824080903 -0.1127998710567241 0  -2.948904386702482 0.1555943115410545 0  0.4165242577134774 -0.5629432649478633 0  -3.698137692471105 -0.3173027948676715 0  -3.491400684461791 -0.7926319721650269 0  -0.3844454817728994 0.4680628696134375 0  -3.207830713508533 0.9778749990559993 0  3.229909751065535 -1.326302454776001 0  5.330007715336748 -1.312905173261894 0  -2.649214054100534 -0.713314536278899 0  1.342022964818772 -1.328315248672686 0  -2.556460939068198 1.202372762828344 0  -0.3497819755044588 -0.3080427614060888 0  -4.928440909495523 1.387622767511967 0  1.309170811945155 1.337467055109531 0  -1.352031940181449 -0.7151198948590243 0  -0.6132855723904642 0.9519045895123004 0  4.266838388406324 -0.3707357390867402 0  -3.834389788310238 1.371594798941152 0  -1.187890214580146 0.4851427123079557 0  -1.109118888029193 0.3185947354467283 0  0.1837819401738013 1.234799661476361 0  1.108165254659559 0.6237223548284967 0  -0.5266600156584522 -0.8113991260886402 0  -4.643822083543982 0.7834094684931707 0  -1.146235204666366 -0.4027330721405781 0  2.049029845992713 -0.2664662499985428 0  2.002665761665898 -1.328912351029848 0  -1.678783505586872 0.8978832065736417 0  -2.049499525232052 0.9483890761590005 0  -2.229972236535132 0.9181006323151361 0  -3.033763529945482 -1.54240494280775 0  -3.562344364746847 0.5622550957224539 0  -5.524396842903405 -0.2709714867672603 0  -0.9710982764034376 -1.549038578476423 0  3.058819320130555 -0.5375106252795963 0  -4.170365230099585 0.7342553699229977 0  -1.045878746461381 -8.187420622554697e-05 0  -1.864822945411764 -0.9219031104673102 0  -0.6251005091687033 -0.2120650512195049 0  2.317562622406059 0.4886417799113238 0  -0.6674371191466613 0.1483993095055008 0  -2.705757882979874 1.609712312948224 0  
[...]
<PointData  Vectors="f_22"> 
<DataArray  type="Float64"  Name="f_22"  NumberOfComponents="3" format="ascii">0.0000000000000000e+00 0.0000000000000000e+00 0.0000000000000000e+00  0.0000000000000000e+00 0.0000000000000000e+00 0.0000000000000000e+00  0.0000000000000000e+00 0.0000000000000000e+00 0.0000000000000000e+00  0.0000000000000000e+00 0.0000000000000000e+00 0.0000000000000000e+00  9.9999997585952904e-01 0.0000000000000000e+00 0.0000000000000000e+00  9.9999997585952904e-01 0.0000000000000000e+00 0.0000000000000000e+00  0.0000000000000000e+00 0.0000000000000000e+00 0.0000000000000000e+00  0.0000000000000000e+00 0.0000000000000000e+00 0.0000000000000000e+00  0.0000000000000000e+00 0.0000000000000000e+00 0.0000000000000000e+00  0.0000000000000000e+00 0.0000000000000000e+00 0.0000000000000000e+00  0.0000000000000000e+00 0.0000000000000000e+00 0.0000000000000000e+00  0.0000000000000000e+00 0.0000000000000000e+00 0.0000000000000000e+00  0.0000000000000000e+00 0.0000000000000000e+00 0.0000000000000000e+00  0.0000000000000000e+00 0.0000000000000000e+00 0.0000000000000000e+00  0.0000000000000000e+00 0.0000000000000000e+00 0.0000000000000000e+00  0.0000000000000000e+00 0.0000000000000000e+00 0.0000000000000000e+00  0.0000000000000000e+00 0.0000000000000000e+00 0.0000000000000000e+00  0.0000000000000000e+00 0.0000000000000000e+00 0.0000000000000000e+00  0.0000000000000000e+00 0.0000000000000000e+00 0.0000000000000000e+00  0.0000000000000000e+00 0.0000000000000000e+00 0.0000000000000000e+00  0.0000000000000000e+00 0.0000000000000000e+00 0.0000000000000000e+00  0.0000000000000000e+00 0.0000000000000000e+00 0.0000000000000000e+00  0.0000000000000000e+00 0.0000000000000000e+00 0.0000000000000000e+00  0.0000000000000000e+00 0.0000000000000000e+00 0.0000000000000000e+00  0.0000000000000000e+00 0.0000000000000000e+00 0.0000000000000000e+00  0.0000000000000000e+00 0.0000000000000000e+00 0.0000000000000000e+00  0.0000000000000000e+00 0.0000000000000000e+00 0.0000000000000000e+00  0.0000000000000000e+00 0.0000000000000000e+00 0.0000000000000000e+00  0.0000000000000000e+00 0.0000000000000000e+00 0.0000000000000000e+00  2.9323570592479814e-01 1.2106025469149363e-04 0.0000000000000000e+00  3.2091382154860848e-01 1.5887644850783343e-04 0.0000000000000000e+00  3.2248128959050343e-01 -1.9053522650616086e-05 0.0000000000000000e+00  3.2258027196627298e-01 -9.3015466042213084e-06 0.0000000000000000e+00  3.2250117135750395e-01 -7.1557575646367688e-06 0.0000000000000000e+00  3.2160216463240937e-01 2.1879750060505777e-04 0.0000000000000000e+00  2.9384798408860324e-01 -4.9508147862597498e-04 0.0000000000000000e+00  0.0000000000000000e+00 0.0000000000000000e+00 0.0000000000000000e+00  0.0000000000000000e+00 0.0000000000000000e+00 0.0000000000000000e+00  0.0000000000000000e+00 0.0000000000000000e+00 0.0000000000000000e+00  0.0000000000000000e+00 0.0000000000000000e+00 0.0000000000000000e+00  0.0000000000000000e+00 0.0000000000000000e+00 0.0000000000000000e+00  0.0000000000000000e+00 0.0000000000000000e+00 0.0000000000000000e+00  0.0000000000000000e+00 0.0000000000000000e+00 0.0000000000000000e+00  0.0000000000000000e+00 0.0000000000000000e+00 0.0000000000000000e+00  0.0000000000000000e+00 0.0000000000000000e+00 0.0000000000000000e+00  0.0000000000000000e+00 0.0000000000000000e+00 0.0000000000000000e+00  0.0000000000000000e+00 0.0000000000000000e+00 0.0000000000000000e+00  0.0000000000000000e+00 0.0000000000000000e+00 0.0000000000000000e+00  0.0000000000000000e+00 0.0000000000000000e+00 0.0000000000000000e+00  0.0000000000000000e+00 0.0000000000000000e+00 0.0000000000000000e+00  0.0000000000000000e+00 0.0000000000000000e+00 0.0000000000000000e+00  0.0000000000000000e+00 0.0000000000000000e+00 0.0000000000000000e+00  0.0000000000000000e+00 0.0000000000000000e+00 0.0000000000000000e+00  0.0000000000000000e+00 0.0000000000000000e+00 0.0000000000000000e+00  0.0000000000000000e+00 0.0000000000000000e+00 0.0000000000000000e+00  0.0000000000000000e+00 0.0000000000000000e+00 0.0000000000000000e+00  0.0000000000000000e+00 0.0000000000000000e+00 0.0000000000000000e+00  0.0000000000000000e+00 0.0000000000000000e+00 0.0000000000000000e+00  0.0000000000000000e+00 0.0000000000000000e+00 0.0000000000000000e+00  2.8707768279800316e-01 -1.1588799360871531e-03 0.0000000000000000e+00  3.1864554154853181e-01 -1.0125398618142433e-03 0.0000000000000000e+00  3.2820741469966780e-01 -1.3766071794708867e-03 0.0000000000000000e+00  3.3328929773769456e-01 1.1277488114695921e-03 0.0000000000000000e+00  3.2924170942234277e-01 4.4532157450005705e-04 0.0000000000000000e+00  3.1986326360880390e-01 8.5020382470843555e-04 0.0000000000000000e+00  2.8678774600672041e-01 9.2106859923990318e-04 0.0000000000000000e+00  9.9999997585952904e-01 0.0000000000000000e+00 0.0000000000000000e+00  9.9999997585952904e-01 0.0000000000000000e+00 0.0000000000000000e+00  9.9999997585952904e-01 0.0000000000000000e+00 0.0000000000000000e+00  9.9999997585952904e-01 0.0000000000000000e+00 0.0000000000000000e+00  9.9999997585952904e-01 0.0000000000000000e+00 0.0000000000000000e+00  9.9999997585952904e-01 0.0000000000000000e+00 0.0000000000000000e+00  9.9999997585952904e-01 0.0000000000000000e+00 0.0000000000000000e+00  9.9999997585952904e-01 0.0000000000000000e+00 0.0000000000000000e+00  9.9999997585952904e-01 0.0000000000000000e+00 0.0000000000000000e+00  9.9999997585952904e-01 0.0000000000000000e+00 0.0000000000000000e+00  9.9999997585952904e-01 0.0000000000000000e+00 0.0000000000000000e+00  9.9999997585952904e-01 0.0000000000000000e+00 0.0000000000000000e+00  9.9999997585952904e-01 0.0000000000000000e+00 0.0000000000000000e+00  9.9999997585952904e-01 0.0000000000000000e+00 0.0000000000000000e+00  9.9999997585952904e-01 0.0000000000000000e+00 0.0000000000000000e+00  9.9999997585952904e-01 0.0000000000000000e+00 0.0000000000000000e+00  9.9999997585952904e-01 0.0000000000000000e+00 0.0000000000000000e+00  9.9999997585952904e-01 0.0000000000000000e+00 0.0000000000000000e+00  9.9999997585952904e-01 0.0000000000000000e+00 0.0000000000000000e+00  9.9999997585952904e-01 0.0000000000000000e+00 0.0000000000000000e+00  9.9999997585952904e-01 0.0000000000000000e+00 0.0000000000000000e+00  9.9999997585952904e-01 0.0000000000000000e+00 0.0000000000000000e+00  9.9999997585952904e-01 0.0000000000000000e+00 0.0000000000000000e+00  9.9999997585952904e-01 0.0000000000000000e+00 0.0000000000000000e+00  9.9999997585952904e-01 0.0000000000000000e+00 0.0000000000000000e+00  9.9999997585952904e-01 0.0000000000000000e+00 0.0000000000000000e+00  9.9999997585952904e-01 0.0000000000000000e+00 0.0000000000000000e+00  9.9999997585952904e-01 0.0000000000000000e+00 0.0000000000000000e+00  9.9999997585952904e-01 0.0000000000000000e+00 0.0000000000000000e+00  9.9999997585952904e-01 0.0000000000000000e+00 0.0000000000000000e+00  9.9999997585952904e-01 0.0000000000000000e+00 0.0000000000000000e+00  9.9999997585952904e-01 0.0000000000000000e+00 0.0000000000000000e+00  9.9999997585952904e-01 0.0000000000000000e+00 0.0000000000000000e+00  9.9999997585952904e-01 0.0000000000000000e+00 0.0000000000000000e+00  9.9999997585952904e-01 0.0000000000000000e+00 0.0000000000000000e+00  9.9999997585952904e-01 0.0000000000000000e+00 0.0000000000000000e+00  9.9999997585952904e-01 0.0000000000000000e+00 0.0000000000000000e+00  9.9999997585952904e-01 0.0000000000000000e+00 0.0000000000000000e+00  9.9999997585952904e-01 0.0000000000000000e+00 0.0000000000000000e+00  9.9999997585952904e-01 0.0000000000000000e+00 0.0000000000000000e+00  9.9999997585952904e-01 0.0000000000000000e+00 0.0000000000000000e+00  9.9999997585952904e-01 0.0000000000000000e+00 0.0000000000000000e+00  9.9999997585952904e-01 0.0000000000000000e+00 0.0000000000000000e+00  9.9999997585952904e-01 0.0000000000000000e+00 0.0000000000000000e+00  9.9999997585952904e-01 0.0000000000000000e+00 0.0000000000000000e+00  9.9999997585952904e-01 0.0000000000000000e+00 0.0000000000000000e+00  9.9999997585952904e-01 0.0000000000000000e+00 0.0000000000000000e+00  9.9999997585952904e-01 0.0000000000000000e+00 0.0000000000000000e+00  9.9999997585952904e-01 0.0000000000000000e+00 0.0000000000000000e+00  9.9999997585952904e-01 0.0000000000000000e+00 0.0000000000000000e+00  9.9999997585952904e-01 0.0000000000000000e+00 0.0000000000000000e+00  9.9999997585952904e-01 0.0000000000000000e+00 0.0000000000000000e+00  9.9999997585952904e-01 0.0000000000000000e+00 0.0000000000000000e+00  9.9999997585952904e-01 0.0000000000000000e+00 0.0000000000000000e+00  9.9999997585952904e-01 0.0000000000000000e+00 0.0000000000000000e+00  9.9999997585952904e-01 0.0000000000000000e+00 0.0000000000000000e+00  9.9999997585952904e-01 0.0000000000000000e+00 0.0000000000000000e+00  9.9999997585952904e-01 0.0000000000000000e+00 0.0000000000000000e+00  9.9999997585952904e-01 0.0000000000000000e+00 0.0000000000000000e+00  9.9999997585952904e-01 0.0000000000000000e+00 0.0000000000000000e+00  9.9999997585952904e-01 0.0000000000000000e+00 0.0000000000000000e+00  9.9999997585952904e-01 0.0000000000000000e+00 0.0000000000000000e+00  6.2565398582838716e-01 2.5399139494006233e-02 0.0000000000000000e+00  3.4439726280649702e-01 -1.2140921048590372e-02 0.0000000000000000e+00  3.4977147583440693e-01 5.7772909356066743e-02 0.0000000000000000e+00  3.0389466515390967e-01 -8.7311737261895173e-02 0.0000000000000000e+00  5.4040252534498712e-01 2.1824978985343083e-01 0.0000000000000000e+00  6.2674581843964705e-01 -1.6565794543493578e-01 0.0000000000000000e+00  4.2166179322182734e-01 -2.0214039165799724e-02 0.0000000000000000e+00  2.1432527867455578e-01 1.3020754834146822e-01 0.0000000000000000e+00  8.6987438641788051e-01 1.7243355721573383e-02 0.0000000000000000e+00  6.6295502175323859e-02 1.8609300939523302e-01 0.0000000000000000e+00  1.4107140538252494e-01 -1.1950301146970625e-01 0.0000000000000000e+00  3.4220133569860955e-01 -2.5800208496450733e-01 0.0000000000000000e+00  3.4072764825911372e-01 -1.6294276822535484e-04 0.0000000000000000e+00  -1.3961296939740912e-02 1.9347270551988152e-01 0.0000000000000000e+00  -1.9335637655254265e-01 -2.7648124044513134e-01 0.0000000000000000e+00  -4.3354787003748119e-01 -2.2411489054038763e-01 0.0000000000000000e+00  -3.0306607075267156e-01 1.1651013421657608e-01 0.0000000000000000e+00  4.1871952889193481e-01 1.5295716203779094e-01 0.0000000000000000e+00  -3.5972876749505567e-01 3.1082637721128770e-01 0.0000000000000000e+00  8.5696402611506983e-01 1.3245607631196965e-01 0.0000000000000000e+00  4.4110209262161676e-01 -1.7217541611239287e-01 0.0000000000000000e+00  8.7037870324029898e-01 -1.0851079133882807e-01 0.0000000000000000e+00  3.2308598878148953e-01 4.1660060801188817e-04 0.0000000000000000e+00  5.6962270163626194e-01 -4.0948201204006905e-02 0.0000000000000000e+00  2.7617006806916305e-01 -3.1854996658652512e-01 0.0000000000000000e+00  1.6440268184327905e-02 -3.9913454667287235e-01 0.0000000000000000e+00  3.3060506401791162e-01 6.3505791232024910e-03 0.0000000000000000e+00  3.8112369354046138e-01 3.2645387917257801e-01 0.0000000000000000e+00  1.1499686292951479e-01 4.0212477089326276e-01 0.0000000000000000e+00  -3.6149094785571523e-01 -3.6001434089179607e-01 0.0000000000000000e+00  9.5316341726233444e-01 4.6995383082899883e-02 0.0000000000000000e+00  9.6644948606711456e-01 -1.2693104104199670e-02 0.0000000000000000e+00  9.4330396323304422e-01 1.0071306518550038e-01 0.0000000000000000e+00  6.8313619655264290e-01 4.2291888892168811e-02 0.0000000000000000e+00  9.3642757930094578e-01 -9.3075152385469762e-02 0.0000000000000000e+00  8.0059111535772498e-01 -7.2970482307674445e-02 0.0000000000000000e+00  3.6252052601654577e-01 -9.3869633743920933e-02 0.0000000000000000e+00  3.3945593987914674e-01 8.8958306841118287e-02 0.0000000000000000e+00  5.7926557597148332e-01 1.9755018524179241e-01 0.0000000000000000e+00  3.2266910835788637e-01 -2.3083862545868203e-03 0.0000000000000000e+00  -1.3630904527071208e-01 2.2806311131154317e-01 0.0000000000000000e+00  3.2234373794734289e-01 -2.7405345959559629e-04 0.0000000000000000e+00  6.0901380063509725e-01 -2.1299057867318652e-01 0.0000000000000000e+00  3.0553080351814160e-01 -1.8024224212376441e-02 0.0000000000000000e+00  -2.9099454314994111e-01 4.6033032395246759e-01 0.0000000000000000e+00  3.1966216584600432e-01 4.4584510210756044e-03 0.0000000000000000e+00  3.2419094878121257e-01 -4.0646196173935514e-03 0.0000000000000000e+00  2.2192888670184827e-01 1.6020238588109290e-01 0.0000000000000000e+00  2.4197052401165681e-01 -1.5903786422896030e-01 0.0000000000000000e+00  9.6294242558195475e-01 5.1603103279359103e-02 0.0000000000000000e+00  9.7075047735170239e-01 -4.0748298351359860e-02 0.0000000000000000e+00  -1.7550869983338657e-01 -5.4191444025835678e-01 0.0000000000000000e+00  5.1345611992397011e-01 -3.6736277468393125e-01 0.0000000000000000e+00  6.8804892128927223e-02 -1.5288486712108743e-01 0.0000000000000000e+00  -2.9602556045904216e-01 -4.2047040184094592e-01 0.0000000000000000e+00  3.1356911567673795e-01 -2.0190251782187585e-02 0.0000000000000000e+00  -8.3465767100884311e-02 5.2999213596299211e-01 0.0000000000000000e+00  6.2481430668273830e-01 5.8331740996613920e-03 0.0000000000000000e+00  -1.7452686180645152e-01 2.9115894303753403e-01 0.0000000000000000e+00  3.6336842865321323e-01 1.0110807179675252e-02 0.0000000000000000e+00  3.2003146526898485e-01 4.5891636340085083e-04 0.0000000000000000e+00  3.0667491122934359e-01 1.7376162918831813e-02 0.0000000000000000e+00  3.3625276838958679e-01 -8.6649556421592529e-04 0.0000000000000000e+00  2.7379655214932386e-01 4.0207509676515374e-02 0.0000000000000000e+00  7.1630490277502790e-01 3.8721243987726986e-02 0.0000000000000000e+00  3.5714364266525206e-01 -4.5109081256803046e-02 0.0000000000000000e+00  -3.4181661336315824e-02 -2.1438621920343406e-01 0.0000000000000000e+00  2.1493665309324994e-01 -5.0346702972215551e-01 0.0000000000000000e+00  3.0539310064742758e-01 2.1530508833761598e-02 0.0000000000000000e+00  9.8585178243300242e-01 1.5241972000589091e-02 0.0000000000000000e+00  3.2833200250712674e-01 5.0551377460977809e-01 0.0000000000000000e+00  5.3301384718156264e-01 3.6408324970560491e-01 0.0000000000000000e+00  9.8691334171867573e-01 4.0481960064792974e-02 0.0000000000000000e+00  7.0088027081319415e-01 7.2940863382511711e-02 0.0000000000000000e+00  3.2268837207384182e-01 9.9904750299033011e-05 0.0000000000000000e+00  9.7419984736978393e-01 -4.7186395717937597e-02 0.0000000000000000e+00  -7.7444676593299136e-02 -2.3709610145879617e-01 0.0000000000000000e+00  3.1849644975615066e-01 8.7053399371772155e-04 0.0000000000000000e+00  9.8903278287928897e-01 -1.3397562132994622e-02 0.0000000000000000e+00  4.8304443208595788e-01 1.0759585869577292e-02 0.0000000000000000e+00  3.2575955569899523e-01 7.4633777603008231e-05 0.0000000000000000e+00  4.8271334862524429e-01 6.6236128735344568e-02 0.0000000000000000e+00  3.0985816552595441e-01 4.2128725719099763e-03 0.0000000000000000e+00  7.5229011244161537e-01 -3.8705533797818104e-02 0.0000000000000000e+00  3.3542424945545607e-01 1.9726569410579649e-02 0.0000000000000000e+00  -1.3177663869229794e-01 2.1824636334610939e-01 0.0000000000000000e+00  3.1444854863751670e-01 7.3573046672745918e-02 0.0000000000000000e+00  7.9435102884315223e-01 6.5329395442769653e-03 0.0000000000000000e+00  -1.8388651857469240e-02 -5.9611068149572966e-01 0.0000000000000000e+00  3.1513656196406375e-01 -4.9474260731385302e-04 0.0000000000000000e+00  -5.4425780418977099e-01 2.5376156540813261e-01 0.0000000000000000e+00  2.2502060514490912e-01 -4.2310879999065146e-02 0.0000000000000000e+00  7.0607319264611590e-01 2.5945700539923633e-01 0.0000000000000000e+00  -2.5444605728339126e-01 5.2716138345463914e-01 0.0000000000000000e+00  -2.7591050684122848e-01 4.0350303707254520e-01 0.0000000000000000e+00  5.0413893468617144e-01 -8.2626620245963400e-02 0.0000000000000000e+00  3.4166037752996270e-01 3.1935698381420010e-03 0.0000000000000000e+00  7.3293184986634741e-01 -1.6226649644225952e-01 0.0000000000000000e+00  5.6003286661189911e-01 -1.0800120365015273e-01 0.0000000000000000e+00  3.9144010522649808e-01 4.9098078467237571e-02 0.0000000000000000e+00  3.2267013923771204e-01 1.0609940858024468e-01 0.0000000000000000e+00  7.7626527502493525e-01 1.1783020344645216e-01 0.0000000000000000e+00  2.5139438762666533e-01 -1.4057799616855457e-01 0.0000000000000000e+00  3.0769329848216925e-01 -3.5773667268039593e-03 0.0000000000000000e+00  3.1304463820508166e-01 -3.7424414866576124e-05 0.0000000000000000e+00  8.9435364129325054e-02 5.9985256708991963e-01 0.0000000000000000e+00  1.8681221616602597e-01 -1.0177422862653948e-01 0.0000000000000000e+00  -6.0483549602400127e-02 -2.6485069061619104e-01 0.0000000000000000e+00  8.1538829991089024e-01 -7.6230232579644688e-02 0.0000000000000000e+00  2.9890996041923373e-01 -5.5165371467649927e-03 0.0000000000000000e+00  1.7582839211343837e-01 1.0142194760809498e-01 0.0000000000000000e+00  9.8493993918320122e-01 -2.9305591948036024e-02 0.0000000000000000e+00  5.0643935196967171e-01 2.8793161689125829e-01 0.0000000000000000e+00  3.2311961289756724e-01 -5.2742932919154918e-04 0.0000000000000000e+00  2.6945430067301757e-01 -3.2635211420958106e-02 0.0000000000000000e+00  9.7474243206956168e-01 3.7830177181929256e-02 0.0000000000000000e+00  9.8186076330264582e-01 2.8599340891999323e-02 0.0000000000000000e+00  1.1993215085515785e-01 1.8018717782800961e-01 0.0000000000000000e+00  4.3218484761781489e-01 1.0927332074144872e-01 0.0000000000000000e+00  6.3713712571438896e-01 -2.3860418408352607e-01 0.0000000000000000e+00  3.2717978983694296e-01 -1.2251789252924347e-02 0.0000000000000000e+00  9.7775735959052446e-01 -3.4458201036053196e-02 0.0000000000000000e+00  3.7448169661456415e-01 -3.0523049641810216e-02 0.0000000000000000e+00  2.6963380871397397e-01 -3.9755817129764039e-02 0.0000000000000000e+00  4.4877084688133267e-01 -4.1911152155529229e-02 0.0000000000000000e+00  -1.9476721063842919e-01 -2.9826003990225025e-01 0.0000000000000000e+00  -2.8480818109712092e-01 -4.7113627889948456e-01 0.0000000000000000e+00  1.4904874515009311e-01 2.9614849504306671e-02 0.0000000000000000e+00  3.6906453101461678e-01 -9.0322198497325756e-02 0.0000000000000000e+00  3.3179100752381940e-01 8.3330514872869137e-04 0.0000000000000000e+00  -5.6129218274132620e-01 -7.3021489984205531e-02 0.0000000000000000e+00  3.2658642131898430e-01 -7.4331494930183657e-03 0.0000000000000000e+00  3.3281551983261726e-01 -3.0825904339947613e-02 0.0000000000000000e+00  9.9095042014506185e-01 -3.3184057984034736e-04 0.0000000000000000e+00  1.2350832292076223e-01 1.1620554608193914e-01 0.0000000000000000e+00  9.0225275425710916e-01 -4.8621061349826578e-02 0.0000000000000000e+00  3.4248230071277619e-01 2.9248883655096591e-02 0.0000000000000000e+00  9.2108814806071793e-01 3.1806671003269268e-02 0.0000000000000000e+00  9.4610298829041956e-02 -3.3248028985806394e-02 0.0000000000000000e+00  2.5513649046343334e-01 4.0240576890720720e-02 0.0000000000000000e+00  3.7393470238960574e-01 -5.0517551122313764e-01 0.0000000000000000e+00  6.5683234669557811e-01 -3.7698727584596003e-01 0.0000000000000000e+00  9.3349893008052476e-01 -5.4301663478915033e-02 0.0000000000000000e+00  3.1863191177306416e-01 1.8671049139379078e-01 0.0000000000000000e+00  3.1018106143673657e-01 -1.2607040779170143e-03 0.0000000000000000e+00  2.4623940465177455e-01 -1.8845616163722587e-01 0.0000000000000000e+00  -6.9092947468889399e-01 2.2027661733444465e-04 0.0000000000000000e+00  3.3034097000561530e-01 -1.8587357053981438e-01 0.0000000000000000e+00  -3.5871257227647940e-01 -1.5776075890568761e-01 0.0000000000000000e+00  3.7654312143959173e-01 -1.2317546952034505e-02 0.0000000000000000e+00  9.7668827572869044e-01 2.2106436375366550e-02 0.0000000000000000e+00  8.9759470114529516e-01 7.8469529948103717e-02 0.0000000000000000e+00  5.9191421419993906e-01 3.6964071808666277e-01 0.0000000000000000e+00  7.5118203987351440e-01 2.1629816603197402e-01 0.0000000000000000e+00  9.9137300646343041e-01 -1.6199378989754751