<?xml version="1.0"?>
<VTKFile type="UnstructuredGrid"  version="0.1"  >
<UnstructuredGrid>
<Piece  NumberOfPoints="622" NumberOfCells="1116">
<Points>
<DataArray  type="Float64"  NumberOfComponents="3"  format="ascii">-6 -2 0  -6 2 0  6 2 0  6 -2 0  -2.8 0 0  -1.2 0 0  -5.500000000001853 -2 0  -5.000000000003705 -2 0  -4.500000000005556 -2 0  -4.000000000007409 -2 0  -3.50000000000926 -2 0  -3.000000000011112 -2 0  -2.500000000012963 -2 0  -2.000000000014814 -2 0  -1.500000000016665 -2 0  -1.000000000018516 -2 0  -0.5000000000203677 -2 0  -2.204547655537681e-11 -2 0  0.4999999999796305 -2 0  0.9999999999814779 -2 0  1.499999999983327 -2 0  1.999999999985175 -2 0  2.499999999987029 -2 0  2.999999999988882 -2 0  3.499999999990735 -2 0  3.999999999992589 -2 0  4.49999999999444 -2 0  4.999999999996293 -2 0  5.499999999998147 -2 0  6 -1.500000000001387 0  6 -1.000000000002774 0  6 -0.5000000000041616 0  6 -5.505595979116151e-12 0  6 0.4999999999958384 0  6 0.9999999999972258 0  6 1.499999999998613 0  5.500000000001853 2 0  5.000000000003705 2 0  4.500000000005556 2 0  4.000000000007409 2 0  3.50000000000926 2 0  3.000000000011112 2 0  2.500000000012963 2 0  2.000000000014814 2 0  1.500000000016665 2 0  1.000000000018516 2 0  0.5000000000203677 2 0  2.204547655537681e-11 2 0  -0.4999999999796305 2 0  -0.9999999999814779 2 0  -1.499999999983327 2 0  -1.999999999985175 2 0  -2.499999999987029 2 0  -2.999999999988882 2 0  -3.499999999990735 2 0  -3.999999999992589 2 0  -4.49999999999444 2 0  -4.999999999996293 2 0  -5.499999999998147 2 0  -6 1.500000000001387 0  -6 1.000000000002774 0  -6 0.5000000000041616 0  -6 5.505595979116151e-12 0  -6 -0.4999999999958384 0  -6 -0.9999999999972258 0  -6 -1.499999999998613 0  -2.796147781337886 -0.07841371226233997 0  -2.784628224322852 -0.1560722576115546 0  -2.765552268586196 -0.2322277418021561 0  -2.739103626009626 -0.30614674589063 0  -2.705537011479457 -0.3771173894593519 0  -2.665175689843037 -0.4444561864141836 0  -2.618408362691456 -0.5075146273293722 0  -2.565685424950688 -0.5656854249477874 0  -2.507514627332613 -0.6184083626887972 0  -2.444456186417533 -0.6651756898407991 0  -2.377117389462776 -0.7055370114776264 0  -2.306146745894456 -0.7391036260080417 0  -2.232227741806235 -0.7655522685849585 0  -2.15607225761588 -0.784628224321992 0  -2.078413712266957 -0.7961477813374315 0  -2.000000000003407 -0.7999999999999998 0  -1.921586287739523 -0.7961477813380696 0  -1.843927742389945 -0.7846282243231506 0  -1.767772258198879 -0.7655522685865098 0  -1.693853254109962 -0.7391036260098718 0  -1.622882610540873 -0.7055370114795768 0  -1.555543813585629 -0.6651756898429115 0  -1.49248537267008 -0.6184083626910072 0  -1.434314575051535 -0.5656854249500112 0  -1.381591637310384 -0.5075146273316149 0  -1.334824310158267 -0.4444561864161359 0  -1.294462988521423 -0.3771173894609975 0  -1.260896373990956 -0.3061467458920351 0  -1.234447731414138 -0.2322277418032578 0  -1.215371775677287 -0.156072257612254 0  -1.203852218662147 -0.07841371226267954 0  -1.203852218662115 0.07841371226235888 0  -1.215371775677132 0.156072257611478 0  -1.234447731413795 0.232227741802127 0  -1.260896373990353 0.3061467458905811 0  -1.294462988520456 0.3771173894591898 0  -1.334824310156812 0.444456186413959 0  -1.381591637308413 0.5075146273292139 0  -1.434314575049147 0.5656854249476236 0  -1.492485372667197 0.6184083626886415 0  -1.555543813582104 0.6651756898405565 0  -1.62288261053673 0.7055370114773629 0  -1.693853254105125 0.7391036260078683 0  -1.767772258193396 0.7655522685848468 0  -1.84392774238373 0.7846282243219146 0  -1.921586287732977 0.7961477813374253 0  -1.999999999996558 0.8 0  -2.078413712260516 0.7961477813380661 0  -2.156072257610207 0.7846282243231205 0  -2.232227741801178 0.7655522685864928 0  -2.306146745890059 0.7391036260098632 0  -2.377117389459098 0.7055370114795929 0  -2.444456186414405 0.6651756898428894 0  -2.50751462732998 0.6184083626909587 0  -2.565685424948549 0.5656854249499272 0  -2.61840836268981 0.5075146273313792 0  -2.665175689841831 0.4444561864159886 0  -2.705537011478692 0.3771173894607835 0  -2.739103626009108 0.3061467458918818 0  -2.76555226858589 0.2322277418031643 0  -2.784628224322724 0.1560722576122001 0  -2.796147781337853 0.07841371226267957 0  0.6720367661319522 0.1312687487860887 0  -4.389489086394485 0.3544472233398538 0  -3.816221554046232 -0.6097988664512611 0  -3.552726516474419 0.9342959806851625 0  -0.2536610443052337 0.8162373554653355 0  -0.1843238977799138 -0.6649951410982842 0  -3.613359951620445 0.1086570650978273 0  -3.146954163409593 -1.074378179335012 0  -0.4255266515582625 0.07734891565364931 0  -0.9413731612925856 1.168014724254929 0  -2.947764053183577 1.200029094390044 0  -0.8319852757411681 -1.058626838707328 0  2.675418990747819 -1.137325591670363e-12 0  -2.602010642259726 -1.287560129290477 0  -2.334401622060699 1.335006108940604 0  -1.524718496628401 1.32890816230333 0  -1.369813829148039 -1.26145150481762 0  -3.294065651892671 -0.4630240940010318 0  -2.072749204569071 -1.388981302138359 0  -0.7546165313921411 0.5601792161340381 0  -3.224879719581335 0.4382689715877901 0  -0.7073137361349826 -0.4625305410752652 0  4.326242945813966 0.3262429458150917 0  -3.187880061217201 0.07437712177460168 0  -2.94792024259867 0.7030255657465158 0  -2.678809277907896 0.9152683582887104 0  -4.911626141576894 -0.5700186648601188 0  -2.980647654587299 -0.5685006168686053 0  -2.769438919323564 -0.8202775213660614 0  -1.936950121013948 1.220669938589229 0  -0.8971643766260747 0.2762459428874499 0  -0.8760878018253068 -0.06836412137772707 0  -1.086827485441145 0.6772548942594016 0  -1.31355927028917 0.8808768148414213 0  -1.034266382739347 -0.5912381576649568 0  -1.241594139118264 -0.836771920085274 0  1.667161185638911 -0.6367996576268693 0  1.778189842800902 0.7191719841256095 0  -3.065106827511819 -0.266795371500425 0  3.714311277362231 -0.7275465302492842 0  -1.728329421201519 -1.09954751473283 0  4.870629493137888 -0.7325040699186681 0  -3.024707894719303 0.2567561910603656 0  -4.375540207252226 1.228935704312058 0  -2.272077148001781 -1.086192861256262 0  3.351408248797803 0.9175227128129597 0  -5.141847419540732 0.8091901960109126 0  0.5769368286199241 1.111816231125821 0  0.7411482978492124 -1.079569101289617 0  -1.074013749991219 0.430231207546053 0  -1.04664573441257 -0.3358382377487088 0  -2.439195336951085 0.9224778883059374 0  -2.902607676587358 0.4360473765597399 0  -1.629450174302152 1.035617385691805 0  -2.146859933125513 1.032375363966426 0  2.587625196444542 -0.9999926061845814 0  -2.529286802957126 -0.8830616815739111 0  -1.493798157676768 -0.8794705728517196 0  -1.932158132383022 -1.026681566564148 0  -4.09956359341904 -0.1372485582942864 0  5.055802064425553 1.050933510837308 0  -4.413659685984891 -1.207626391697488 0  -4.961411026474009 0.1201902955685026 0  -3.771151641156835 -1.303594976371997 0  -3.001321503506133 -0.04919177107285733 0  -3.881733605683001 0.5124517634812003 0  -0.1971627317996802 -1.336445372382849 0  -2.742825060181767 0.6732573903735507 0  2.520439429199979 1.129372838786189 0  -1.026326428668429 0.1384273198437734 0  -2.779290004861729 -0.5844691722665721 0  -2.895095740820851 -0.4261289730972082 0  -1.275682076193407 0.6630703172777138 0  0.1045291701958869 0.3433373435296472 0  5.175560481258801 0.0608563229178163 0  -1.211574424201636 -0.5847362589868093 0  -1.85847006217035 1.007917631940711 0  4.152535916385823 1.131901130662082 0  -1.04878257200685 -0.1253529988863012 0  1.432836501626023 0.05634449574318775 0  3.560672936003603 0.01188897172456759 0  -3.351823698389408 -0.1821329582635926 0  -5.145153363200735 -1.259166339382508 0  0.03473693330309885 -0.1724947236036572 0  -4.377830921337186 -0.6172564090242229 0  -0.3943750728122595 1.410897156959435 0  -1.661073679471639 -0.9342065000197183 0  -1.49086536677686 0.8331714487926741 0  -2.584486130952032 0.7871482690034864 0  4.270535884593893 -1.259607924744415 0  -1.757417028085795 -1.505182186951191 0  -3.430586920998477 1.425579221231371 0  -2.917598827418652 -0.2298465409534677 0  -2.328978331116049 -0.9300959620317677 0  -2.148543000691344 -0.9751580214451921 0  1.002654111360038 -0.4521702885594788 0  -4.628651824080903 -0.1127998710567241 0  -2.948904386702482 0.1555943115410545 0  0.4165242577134774 -0.5629432649478633 0  -3.698137692471105 -0.3173027948676715 0  -3.491400684461791 -0.7926319721650269 0  -0.3844454817728994 0.4680628696134375 0  -3.207830713508533 0.9778749990559993 0  3.229909751065535 -1.326302454776001 0  5.330007715336748 -1.312905173261894 0  -2.649214054100534 -0.713314536278899 0  1.342022964818772 -1.328315248672686 0  -2.556460939068198 1.202372762828344 0  -0.3497819755044588 -0.3080427614060888 0  -4.928440909495523 1.387622767511967 0  1.309170811945155 1.337467055109531 0  -1.352031940181449 -0.7151198948590243 0  -0.6132855723904642 0.9519045895123004 0  4.266838388406324 -0.3707357390867402 0  -3.834389788310238 1.371594798941152 0  -1.187890214580146 0.4851427123079557 0  -1.109118888029193 0.3185947354467283 0  0.1837819401738013 1.234799661476361 0  1.108165254659559 0.6237223548284967 0  -0.5266600156584522 -0.8113991260886402 0  -4.643822083543982 0.7834094684931707 0  -1.146235204666366 -0.4027330721405781 0  2.049029845992713 -0.2664662499985428 0  2.002665761665898 -1.328912351029848 0  -1.678783505586872 0.8978832065736417 0  -2.049499525232052 0.9483890761590005 0  -2.229972236535132 0.9181006323151361 0  -3.033763529945482 -1.54240494280775 0  -3.562344364746847 0.5622550957224539 0  -5.524396842903405 -0.2709714867672603 0  -0.9710982764034376 -1.549038578476423 0  3.058819320130555 -0.5375106252795963 0  -4.170365230099585 0.7342553699229977 0  -1.045878746461381 -8.187420622554697e-05 0  -1.864822945411764 -0.9219031104673102 0  -0.6251005091687033 -0.2120650512195049 0  2.317562622406059 0.4886417799113238 0  -0.6674371191466613 0.1483993095055008 0  -2.705757882979874 1.609712312948224 0  
[...]
<PointData  Vectors="f_22"> 
<DataArray  type="Float64"  Name="f_22"  NumberOfComponents="3" format="ascii">0.0000000000000000e+00 0.0000000000000000e+00 0.0000000000000000e+00  0.0000000000000000e+00 0.0000000000000000e+00 0.0000000000000000e+00  0.0000000000000000e+00 0.0000000000000000e+00 0.0000000000000000e+00  0.0000000000000000e+00 0.0000000000000000e+00 0.0000000000000000e+00  9.9999998185034766e-01 0.0000000000000000e+00 0.0000000000000000e+00  9.9999998185034766e-01 0.0000000000000000e+00 0.0000000000000000e+00  0.0000000000000000e+00 0.0000000000000000e+00 0.0000000000000000e+00  0.0000000000000000e+00 0.0000000000000000e+00 0.0000000000000000e+00  0.0000000000000000e+00 0.0000000000000000e+00 0.0000000000000000e+00  0.0000000000000000e+00 0.0000000000000000e+00 0.0000000000000000e+00  0.0000000000000000e+00 0.0000000000000000e+00 0.0000000000000000e+00  0.0000000000000000e+00 0.0000000000000000e+00 0.0000000000000000e+00  0.0000000000000000e+00 0.0000000000000000e+00 0.0000000000000000e+00  0.0000000000000000e+00 0.0000000000000000e+00 0.0000000000000000e+00  0.0000000000000000e+00 0.0000000000000000e+00 0.0000000000000000e+00  0.0000000000000000e+00 0.0000000000000000e+00 0.0000000000000000e+00  0.0000000000000000e+00 0.0000000000000000e+00 0.0000000000000000e+00  0.0000000000000000e+00 0.0000000000000000e+00 0.0000000000000000e+00  0.0000000000000000e+00 0.0000000000000000e+00 0.0000000000000000e+00  0.0000000000000000e+00 0.0000000000000000e+00 0.0000000000000000e+00  0.0000000000000000e+00 0.0000000000000000e+00 0.0000000000000000e+00  0.0000000000000000e+00 0.0000000000000000e+00 0.0000000000000000e+00  0.0000000000000000e+00 0.0000000000000000e+00 0.0000000000000000e+00  0.0000000000000000e+00 0.0000000000000000e+00 0.0000000000000000e+00  0.0000000000000000e+00 0.0000000000000000e+00 0.0000000000000000e+00  0.0000000000000000e+00 0.0000000000000000e+00 0.0000000000000000e+00  0.0000000000000000e+00 0.0000000000000000e+00 0.0000000000000000e+00  0.0000000000000000e+00 0.0000000000000000e+00 0.0000000000000000e+00  0.0000000000000000e+00 0.0000000000000000e+00 0.0000000000000000e+00  1.1328625998038877e-01 4.2128554793448839e-05 0.0000000000000000e+00  1.1688833622622742e-01 2.0023670690133854e-05 0.0000000000000000e+00  1.1720961122759670e-01 -2.5995892920015665e-05 0.0000000000000000e+00  1.1720147031116065e-01 -3.1851974272250593e-06 0.0000000000000000e+00  1.1716659493069165e-01 2.2291304175201429e-05 0.0000000000000000e+00  1.1707908063860301e-01 -1.6242045647791585e-05 0.0000000000000000e+00  1.1179368677133078e-01 1.3188689301679897e-04 0.0000000000000000e+00  0.0000000000000000e+00 0.0000000000000000e+00 0.0000000000000000e+00  0.0000000000000000e+00 0.0000000000000000e+00 0.0000000000000000e+00  0.0000000000000000e+00 0.0000000000000000e+00 0.0000000000000000e+00  0.0000000000000000e+00 0.0000000000000000e+00 0.0000000000000000e+00  0.0000000000000000e+00 0.0000000000000000e+00 0.0000000000000000e+00  0.0000000000000000e+00 0.0000000000000000e+00 0.0000000000000000e+00  0.0000000000000000e+00 0.0000000000000000e+00 0.0000000000000000e+00  0.0000000000000000e+00 0.0000000000000000e+00 0.0000000000000000e+00  0.0000000000000000e+00 0.0000000000000000e+00 0.0000000000000000e+00  0.0000000000000000e+00 0.0000000000000000e+00 0.0000000000000000e+00  0.0000000000000000e+00 0.0000000000000000e+00 0.0000000000000000e+00  0.0000000000000000e+00 0.0000000000000000e+00 0.0000000000000000e+00  0.0000000000000000e+00 0.0000000000000000e+00 0.0000000000000000e+00  0.0000000000000000e+00 0.0000000000000000e+00 0.0000000000000000e+00  0.0000000000000000e+00 0.0000000000000000e+00 0.0000000000000000e+00  0.0000000000000000e+00 0.0000000000000000e+00 0.0000000000000000e+00  0.0000000000000000e+00 0.0000000000000000e+00 0.0000000000000000e+00  0.0000000000000000e+00 0.0000000000000000e+00 0.0000000000000000e+00  0.0000000000000000e+00 0.0000000000000000e+00 0.0000000000000000e+00  0.0000000000000000e+00 0.0000000000000000e+00 0.0000000000000000e+00  0.0000000000000000e+00 0.0000000000000000e+00 0.0000000000000000e+00  0.0000000000000000e+00 0.0000000000000000e+00 0.0000000000000000e+00  0.0000000000000000e+00 0.0000000000000000e+00 0.0000000000000000e+00  1.1019799870045818e-01 -9.2944262060773019e-04 0.0000000000000000e+00  1.1625734029861771e-01 -1.3448464138708866e-03 0.0000000000000000e+00  1.2075688830789587e-01 -1.3594172838822078e-03 0.0000000000000000e+00  1.2300948071537937e-01 4.0233801592641868e-04 0.0000000000000000e+00  1.2156702842296489e-01 8.3161589612068391e-04 0.0000000000000000e+00  1.1704603436708348e-01 1.3296204581998267e-03 0.0000000000000000e+00  1.0961766422194888e-01 9.7882380473159471e-04 0.0000000000000000e+00  9.9999998185034766e-01 0.0000000000000000e+00 0.0000000000000000e+00  9.9999998185034766e-01 0.0000000000000000e+00 0.0000000000000000e+00  9.9999998185034766e-01 0.0000000000000000e+00 0.0000000000000000e+00  9.9999998185034766e-01 0.0000000000000000e+00 0.0000000000000000e+00  9.9999998185034766e-01 0.0000000000000000e+00 0.0000000000000000e+00  9.9999998185034766e-01 0.0000000000000000e+00 0.0000000000000000e+00  9.9999998185034766e-01 0.0000000000000000e+00 0.0000000000000000e+00  9.9999998185034766e-01 0.0000000000000000e+00 0.0000000000000000e+00  9.9999998185034766e-01 0.0000000000000000e+00 0.0000000000000000e+00  9.9999998185034766e-01 0.0000000000000000e+00 0.0000000000000000e+00  9.9999998185034766e-01 0.0000000000000000e+00 0.0000000000000000e+00  9.9999998185034766e-01 0.0000000000000000e+00 0.0000000000000000e+00  9.9999998185034766e-01 0.0000000000000000e+00 0.0000000000000000e+00  9.9999998185034766e-01 0.0000000000000000e+00 0.0000000000000000e+00  9.9999998185034766e-01 0.0000000000000000e+00 0.0000000000000000e+00  9.9999998185034766e-01 0.0000000000000000e+00 0.0000000000000000e+00  9.9999998185034766e-01 0.0000000000000000e+00 0.0000000000000000e+00  9.9999998185034766e-01 0.0000000000000000e+00 0.0000000000000000e+00  9.9999998185034766e-01 0.0000000000000000e+00 0.0000000000000000e+00  9.9999998185034766e-01 0.0000000000000000e+00 0.0000000000000000e+00  9.9999998185034766e-01 0.0000000000000000e+00 0.0000000000000000e+00  9.9999998185034766e-01 0.0000000000000000e+00 0.0000000000000000e+00  9.9999998185034766e-01 0.0000000000000000e+00 0.0000000000000000e+00  9.9999998185034766e-01 0.0000000000000000e+00 0.0000000000000000e+00  9.9999998185034766e-01 0.0000000000000000e+00 0.0000000000000000e+00  9.9999998185034766e-01 0.0000000000000000e+00 0.0000000000000000e+00  9.9999998185034766e-01 0.0000000000000000e+00 0.0000000000000000e+00  9.9999998185034766e-01 0.0000000000000000e+00 0.0000000000000000e+00  9.9999998185034766e-01 0.0000000000000000e+00 0.0000000000000000e+00  9.9999998185034766e-01 0.0000000000000000e+00 0.0000000000000000e+00  9.9999998185034766e-01 0.0000000000000000e+00 0.0000000000000000e+00  9.9999998185034766e-01 0.0000000000000000e+00 0.0000000000000000e+00  9.9999998185034766e-01 0.0000000000000000e+00 0.0000000000000000e+00  9.9999998185034766e-01 0.0000000000000000e+00 0.0000000000000000e+00  9.9999998185034766e-01 0.0000000000000000e+00 0.0000000000000000e+00  9.9999998185034766e-01 0.0000000000000000e+00 0.0000000000000000e+00  9.9999998185034766e-01 0.0000000000000000e+00 0.0000000000000000e+00  9.9999998185034766e-01 0.0000000000000000e+00 0.0000000000000000e+00  9.9999998185034766e-01 0.0000000000000000e+00 0.0000000000000000e+00  9.9999998185034766e-01 0.0000000000000000e+00 0.0000000000000000e+00  9.9999998185034766e-01 0.0000000000000000e+00 0.0000000000000000e+00  9.9999998185034766e-01 0.0000000000000000e+00 0.0000000000000000e+00  9.9999998185034766e-01 0.0000000000000000e+00 0.0000000000000000e+00  9.9999998185034766e-01 0.0000000000000000e+00 0.0000000000000000e+00  9.9999998185034766e-01 0.0000000000000000e+00 0.0000000000000000e+00  9.9999998185034766e-01 0.0000000000000000e+00 0.0000000000000000e+00  9.9999998185034766e-01 0.0000000000000000e+00 0.0000000000000000e+00  9.9999998185034766e-01 0.0000000000000000e+00 0.0000000000000000e+00  9.9999998185034766e-01 0.0000000000000000e+00 0.0000000000000000e+00  9.9999998185034766e-01 0.0000000000000000e+00 0.0000000000000000e+00  9.9999998185034766e-01 0.0000000000000000e+00 0.0000000000000000e+00  9.9999998185034766e-01 0.0000000000000000e+00 0.0000000000000000e+00  9.9999998185034766e-01 0.0000000000000000e+00 0.0000000000000000e+00  9.9999998185034766e-01 0.0000000000000000e+00 0.0000000000000000e+00  9.9999998185034766e-01 0.0000000000000000e+00 0.0000000000000000e+00  9.9999998185034766e-01 0.0000000000000000e+00 0.0000000000000000e+00  9.9999998185034766e-01 0.0000000000000000e+00 0.0000000000000000e+00  9.9999998185034766e-01 0.0000000000000000e+00 0.0000000000000000e+00  9.9999998185034766e-01 0.0000000000000000e+00 0.0000000000000000e+00  9.9999998185034766e-01 0.0000000000000000e+00 0.0000000000000000e+00  9.9999998185034766e-01 0.0000000000000000e+00 0.0000000000000000e+00  9.9999998185034766e-01 0.0000000000000000e+00 0.0000000000000000e+00  1.5811056079444197e-01 7.1848293654350913e-03 0.0000000000000000e+00  1.4970177310837526e-01 -2.1453931832769103e-02 0.0000000000000000e+00  1.6554340146447008e-01 9.1478215502372742e-02 0.0000000000000000e+00  1.0068653572971570e-01 -1.4852450109525647e-01 0.0000000000000000e+00  1.2525203581910435e-01 1.8080853449179474e-01 0.0000000000000000e+00  1.6790565622636255e-01 -1.5558563676325748e-01 0.0000000000000000e+00  2.6643627156145011e-01 -3.0815720695431419e-02 0.0000000000000000e+00  -3.8874967671997419e-03 2.3870796092992547e-01 0.0000000000000000e+00  3.9873273316054203e-01 4.6252271749177953e-02 0.0000000000000000e+00  -1.8396303972903510e-01 3.0263360513788912e-01 0.0000000000000000e+00  -1.0437898265989104e-01 -2.5551543139753158e-01 0.0000000000000000e+00  -7.6601400597941113e-02 -3.3891803232369877e-01 0.0000000000000000e+00  1.1852870553584356e-01 1.2688530908133464e-04 0.0000000000000000e+00  -2.9486745656134145e-01 2.6536887389523944e-01 0.0000000000000000e+00  -4.4756012409590235e-01 -2.1348621902057710e-01 0.0000000000000000e+00  -5.2211617082817929e-01 1.7229800082286068e-01 0.0000000000000000e+00  -4.5436312165019199e-01 -2.5342242621759326e-01 0.0000000000000000e+00  2.7901038719005250e-01 2.1024608499425990e-01 0.0000000000000000e+00  -5.3803714690903615e-01 9.9702975913495723e-02 0.0000000000000000e+00  2.7818682072405887e-01 4.5080469784243071e-01 0.0000000000000000e+00  3.0925430995987607e-01 -2.3959734596356505e-01 0.0000000000000000e+00  3.6325108144501733e-01 -3.9168420367225215e-01 0.0000000000000000e+00  1.1743590745018941e-01 8.8344461807255810e-06 0.0000000000000000e+00  4.6817898527796808e-01 -5.6038371950839987e-02 0.0000000000000000e+00  1.3651712495571341e-01 -4.4702875825539368e-01 0.0000000000000000e+00  -1.6232106903605856e-01 -5.0674480686127821e-01 0.0000000000000000e+00  1.2717512302402675e-01 1.2593276236520644e-02 0.0000000000000000e+00  2.6411250284112825e-01 4.3170771273158437e-01 0.0000000000000000e+00  -3.9192854032099093e-02 5.3442378586629291e-01 0.0000000000000000e+00  -6.4444392220642954e-01 -6.9031680863031145e-02 0.0000000000000000e+00  7.4305231441588337e-01 3.0177070244869969e-01 0.0000000000000000e+00  8.4900606931419464e-01 -7.0645451626810768e-02 0.0000000000000000e+00  1.1665684111733393e-01 7.1323366508682340e-01 0.0000000000000000e+00  -3.8192643701088352e-01 6.3927694030658422e-01 0.0000000000000000e+00  3.1778697202521378e-01 -6.3978109367516145e-01 0.0000000000000000e+00  -2.5909551044696194e-01 -6.9097452066357634e-01 0.0000000000000000e+00  1.2033031558803665e-01 -6.7473728986601131e-03 0.0000000000000000e+00  1.1975614804708012e-01 5.3672242507464144e-03 0.0000000000000000e+00  4.8807733945410875e-01 2.4986891592893762e-01 0.0000000000000000e+00  1.1744019537450795e-01 -3.1188171776026942e-04 0.0000000000000000e+00  -7.5399090299496119e-01 -1.2133027024528621e-01 0.0000000000000000e+00  1.1733994807427736e-01 -1.1240530557443721e-04 0.0000000000000000e+00  5.2386404656128915e-01 -2.7091088630098065e-01 0.0000000000000000e+00  1.0062552279528916e-01 -3.3855366264076439e-02 0.0000000000000000e+00  -5.6576299098673877e-01 3.5424244810556316e-01 0.0000000000000000e+00  1.1660460753540616e-01 2.2350335179285264e-04 0.0000000000000000e+00  1.1972627024080602e-01 -9.9905802790655404e-03 0.0000000000000000e+00  1.0693198731456142e-01 4.3973513551972390e-02 0.0000000000000000e+00  1.0948653909669440e-01 -3.1631178708529072e-02 0.0000000000000000e+00  7.9231912238454671e-01 2.4854148757991532e-01 0.0000000000000000e+00  8.6169874476041286e-01 -1.8752505344601422e-01 0.0000000000000000e+00  -3.9564603423742700e-01 -5.6147075088468656e-01 0.0000000000000000e+00  4.2864536620441002e-01 -4.6561805895836178e-01 0.0000000000000000e+00  -7.4672953798292740e-01 2.6640700227160313e-01 0.0000000000000000e+00  -7.0094054531388139e-01 -3.1229555220651978e-01 0.0000000000000000e+00  1.1689945452161914e-01 -1.5800687379170562e-03 0.0000000000000000e+00  -2.6393080844655753e-01 5.8422349147319996e-01 0.0000000000000000e+00  -3.1640846559654029e-01 -4.8340580629432411e-01 0.0000000000000000e+00  -8.1665203918423157e-01 7.4329232741516024e-02 0.0000000000000000e+00  1.8050210095217623e-01 1.5030537165272573e-02 0.0000000000000000e+00  1.1700542112007288e-01 4.5335326279510157e-05 0.0000000000000000e+00  1.0126061647676525e-01 3.3398929775974404e-02 0.0000000000000000e+00  1.3301689186410229e-01 -2.7302791869632677e-03 0.0000000000000000e+00  5.7929042674347939e-02 7.8807084294766142e-02 0.0000000000000000e+00  6.5430744510040040e-01 4.8876032675554230e-02 0.0000000000000000e+00  1.7514923272878127e-01 -7.1711471177863501e-02 0.0000000000000000e+00  1.9330838738034314e-02 -1.0903377573967733e-01 0.0000000000000000e+00  9.7156961187152641e-02 -6.3746885884169779e-01 0.0000000000000000e+00  1.1680271929995369e-01 1.9609557081021003e-03 0.0000000000000000e+00  9.3969172238833509e-01 6.6753106802281623e-02 0.0000000000000000e+00  2.3176722955516962e-01 6.2605379667286065e-01 0.0000000000000000e+00  4.4987061515151366e-01 4.6181623365471036e-01 0.0000000000000000e+00  5.6219471255185249e-01 3.2869805323897261e-01 0.0000000000000000e+00  2.0158436139134947e-01 6.1796070299880372e-02 0.0000000000000000e+00  1.1729543303774735e-01 -8.2658799898238091e-06 0.0000000000000000e+00  6.9615250195235145e-01 -2.8102559133874877e-01 0.0000000000000000e+00  -8.1153792642838352e-01 2.8432879059403993e-02 0.0000000000000000e+00  1.1693067490166116e-01 4.8553290957790990e-05 0.0000000000000000e+00  9.5333272496367272e-01 -5.7080715448918344e-02 0.0000000000000000e+00  1.2839943620100722e-01 1.0799899593635235e-03 0.0000000000000000e+00  1.1764338255875166e-01 -7.3494150506688843e-05 0.0000000000000000e+00  3.5441445295614937e-01 8.8313868205515692e-02 0.0000000000000000e+00  1.1141250064704411e-01 9.3560153343975171e-03 0.0000000000000000e+00  2.3040770853910381e-01 -3.8681458873455782e-02 0.0000000000000000e+00  1.3828316153050377e-01 3.3855020274840282e-02 0.0000000000000000e+00  -3.1115583448602331e-02 1.1270125279081350e-01 0.0000000000000000e+00  -5.6980887562450488e-01 -3.0500605511026002e-01 0.0000000000000000e+00  -2.5231650117624883e-02 3.8369676018744658e-01 0.0000000000000000e+00  -1.6940556271763926e-01 -6.7984187369886451e-01 0.0000000000000000e+00  1.1737866715672871e-01 -3.6714496220020458e-05 0.0000000000000000e+00  -5.0076152970868448e-01 -2.9411319248154620e-02 0.0000000000000000e+00  -1.3837038208013571e-02 -1.0182178156235369e-01 0.0000000000000000e+00  6.4663728292798872e-01 3.2197686471942105e-01 0.0000000000000000e+00  -5.3381825316786524e-01 5.2979464186471081e-01 0.0000000000000000e+00  -7.1599506206557495e-01 3.5906013758522903e-01 0.0000000000000000e+00  1.3285570012364573e-01 -1.5677611382516752e-02 0.0000000000000000e+00  1.4235748740112630e-01 5.1564529687811817e-03 0.0000000000000000e+00  6.7591908138499701e-01 -2.0489607215294697e-01 0.0000000000000000e+00  1.5143775827800743e-01 -4.8147349991770103e-02 0.0000000000000000e+00  2.2683719959466964e-01 7.0917430707503296e-02 0.0000000000000000e+00  1.3991702498666231e-01 1.6725966569486198e-01 0.0000000000000000e+00  2.6388496488179303e-01 1.9597505478563301e-01 0.0000000000000000e+00  4.4399442485434149e-02 -2.4885383516593595e-01 0.0000000000000000e+00  1.1768053648446174e-01 -4.1064474935024765e-04 0.0000000000000000e+00  1.1809917512308889e-01 3.4300878842578078e-05 0.0000000000000000e+00  -3.6575685378500561e-02 7.0285344358130541e-01 0.0000000000000000e+00  1.1120253195739117e-01 -1.0386990817617665e-02 0.0000000000000000e+00  -3.0965704083108297e-01 -3.2663843572799289e-01 0.0000000000000000e+00  3.1073082321508844e-01 -1.3346179837959118e-01 0.0000000000000000e+00  1.0731031236930674e-01 -1.1991144737594165e-02 0.0000000000000000e+00  1.0858115385130244e-01 1.1798445485722916e-02 0.0000000000000000e+00  4.7670641312753237e-01 -3.2124237997910077e-01 0.0000000000000000e+00  4.3451336113655897e-02 2.9187582284198921e-01 0.0000000000000000e+00  1.1737552283668513e-01 -1.1462940785636406e-04 0.0000000000000000e+00  5.6521049143904718e-02 -6.6700763088226825e-02 0.0000000000000000e+00  8.4310915468468550e-01 1.8734255404524461e-01 0.0000000000000000e+00  9.1627201945232417e-01 1.2894018585916098e-01 0.0000000000000000e+00  7.9621260960956217e-02 6.6128751483388190e-02 0.0000000000000000e+00  1.2806747854849437e-01 1.5484632287950325e-02 0.0000000000000000e+00  1.0841853434126564e-01 -2.7305012390435141e-01 0.0000000000000000e+00  1.2462009752648399e-01 -2.3122955471688127e-02 0.0000000000000000e+00  8.8589685177379796e-01 -1.5773418405044021e-01 0.0000000000000000e+00  1.2037458765997981e-01 -1.8492170268643226e-03 0.0000000000000000e+00  1.1564385889850193e-01 -3.5979028846892074e-03 0.0000000000000000e+00  -3.5398589087244620e-01 2.3414574383422668e-01 0.0000000000000000e+00  -7.3627245456605117e-01 -2.5527083376574605e-01 0.0000000000000000e+00  -6.5467485159381344e-01 -4.8670393574823462e-01 0.0000000000000000e+00  -1.3004851162947975e-01 1.0469409092105661e-01 0.0000000000000000e+00  1.9840085193210433e-01 -1.3603166502261310e-01 0.0000000000000000e+00  1.2372215132685063e-01 1.7453984463471745e-03 0.0000000000000000e+00  -2.1282395886601138e-01 -1.2294961372083425e-01 0.0000000000000000e+00  1.1777390106409151e-01 -5.8508661991968163e-04 0.0000000000000000e+00  1.3563421049402516e-01 -5.4007658228010791e-02 0.0000000000000000e+00  9.6338389571510497e-01 -2.6961289961223092e-04 0.0000000000000000e+00  -5.5466579828501106e-01 -5.7572739413691619e-04 0.0000000000000000e+00  4.9184856984214947e-01 -1.8824349428711357e-01 0.0000000000000000e+00  1.1910373201616915e-01 1.9657349794916495e-03 0.0000000000000000e+00  5.5908138989419520e-01 1.5002770019148631e-01 0.0000000000000000e+00  -2.4985007426131467e-01 -9.3326419952105194e-02 0.0000000000000000e+00  1.0873311733950659e-01 2.9817026920152976e-03 0.0000000000000000e+00  2.8053304545869895e-01 -6.2923995725203885e-01 0.0000000000000000e+00  5.9227405501320118e-01 -4.6482995651634790e-01 0.0000000000000000e+00  6.1346202000501460e-01 -3.4082809158046384e-01 0.0000000000000000e+00  1.5438872541320625e-01 2.7542652381548566e-01 0.0000000000000000e+00  1.1425812111658255e-01 -2.9239156098029417e-03 0.0000000000000000e+00  8.6910018479481571e-02 -8.5343988046540753e-02 0.0000000000000000e+00  -2.5588456087913353e-01 9.0128954252278695e-02 0.0000000000000000e+00  1.7135451397539408e-01 -2.7641785566150850e-01 0.0000000000000000e+00  -4.4408633828616373e-01 5.2334252131883367e-03 0.0000000000000000e+00  2.0177658511216506e-01 -1.9301418456069915e-02 0.0000000000000000e+00  3.9955942340673334e-01 3.2712055067861395e-01 0.0000000000000000e+00  4.5482855834352237e-01 3.4225613543620947e-01 0.0000000000000000e+00  5.2944200490671278e-01 4.5689752164722935e-01 0.0000000000000000e+00  3.2646751749115270e-03 4.7099814465072665e-01 0.0000000000000000e+00  9.6206214818478331e-01 -7