<?xml version="1.0"?>
<VTKFile type="UnstructuredGrid"  version="0.1"  >
<UnstructuredGrid>
<Piece  NumberOfPoints="406" NumberOfCells="722">
<Points>
<DataArray  type="Float64"  NumberOfComponents="3"  format="ascii">-6 -2 0  -6 2 0  6 2 0  6 -2 0  -2.8 0 0  -1.2 0 0  -5.500000000001853 -2 0  -5.000000000003705 -2 0  -4.500000000005556 -2 0  -4.000000000007409 -2 0  -3.50000000000926 -2 0  -3.000000000011112 -2 0  -2.500000000012963 -2 0  -2.000000000014814 -2 0  -1.500000000016665 -2 0  -1.000000000018516 -2 0  -0.5000000000203677 -2 0  -2.204547655537681e-11 -2 0  0.4999999999796305 -2 0  0.9999999999814779 -2 0  1.499999999983327 -2 0  1.999999999985175 -2 0  2.499999999987029 -2 0  2.999999999988882 -2 0  3.499999999990735 -2 0  3.999999999992589 -2 0  4.49999999999444 -2 0  4.999999999996293 -2 0  5.499999999998147 -2 0  6 -1.500000000001387 0  6 -1.000000000002774 0  6 -0.5000000000041616 0  6 -5.505595979116151e-12 0  6 0.4999999999958384 0  6 0.9999999999972258 0  6 1.499999999998613 0  5.500000000001853 2 0  5.000000000003705 2 0  4.500000000005556 2 0  4.000000000007409 2 0  3.50000000000926 2 0  3.000000000011112 2 0  2.500000000012963 2 0  2.000000000014814 2 0  1.500000000016665 2 0  1.000000000018516 2 0  0.5000000000203677 2 0  2.204547655537681e-11 2 0  -0.4999999999796305 2 0  -0.9999999999814779 2 0  -1.499999999983327 2 0  -1.999999999985175 2 0  -2.499999999987029 2 0  -2.999999999988882 2 0  -3.499999999990735 2 0  -3.999999999992589 2 0  -4.49999999999444 2 0  -4.999999999996293 2 0  -5.499999999998147 2 0  -6 1.500000000001387 0  -6 1.000000000002774 0  -6 0.5000000000041616 0  -6 5.505595979116151e-12 0  -6 -0.4999999999958384 0  -6 -0.9999999999972258 0  -6 -1.499999999998613 0  -2.776753453941174 -0.1914525314286965 0  -2.708364820523325 -0.3717785376335722 0  -2.598808598538216 -0.5304981265911284 0  -2.454451797386757 -0.65838709271366 0  -2.283683909636528 -0.748012994147384 0  -2.096429344207466 -0.7941670992780535 0  -1.903570655798842 -0.7941670992788195 0  -1.716316090368095 -0.7480129941491368 0  -1.545548202616307 -0.6583870927157747 0  -1.401191401463757 -0.530498126593356 0  -1.291635179477527 -0.371778537635196 0  -1.223246546059047 -0.1914525314295925 0  -1.223246546058803 0.1914525314286035 0  -1.291635179476594 0.3717785376334188 0  -1.401191401461634 0.5304981265909601 0  -1.545548202612898 0.6583870927134221 0  -1.716316090363093 0.7480129941472402 0  -1.903570655792394 0.7941670992780367 0  -2.096429344201276 0.7941670992788055 0  -2.283683909631911 0.7480129941491347 0  -2.454451797383697 0.6583870927157729 0  -2.598808598536385 0.530498126593196 0  -2.70836482052258 0.3717785376349917 0  -2.776753453940975 0.1914525314295042 0  0.4588466633941945 0.2704149791022056 0  -4.424312812173863 0.2760319703992994 0  -3.803977598762586 -0.6841584599595646 0  -0.1330968762779425 -0.6798763971615133 0  2.451109587541276 3.169800318630399e-13 0  -3.563610936250569 0.5929994091167295 0  4.204753319582647 0.2820669554523581 0  -0.4390897559348154 0.6178095532273566 0  -3.041446812595122 1.175550440315544 0  -0.9622132806516797 1.132103015222783 0  1.069493318942931 -0.773608156980569 0  -4.924330687080279 -0.7127064269610045 0  -3.024693497948964 -1.195179289656404 0  -0.9648749555625579 -1.256854520022574 0  -3.443624282349383 -0.2044158249759613 0  -0.5611500783757608 -0.1747080110423833 0  1.60270880116926 0.7487034276124258 0  3.488352576142236 -0.8228939860777884 0  4.816375011670135 -0.8163750116689444 0  3.243628045085357 0.8578172796997985 0  -4.228632884234073 1.228069101636678 0  -2.365220384435482 -1.356128547810356 0  -1.637465979486354 1.3571687267915 0  -1.642380978561139 -1.359365080147485 0  -2.362988915989869 1.356737096243695 0  -5.134120367293631 0.8356299802910161 0  2.077496878467794 -0.9514080034522553 0  4.960859291178299 0.9608592911785537 0  0.3293120056474302 1.148965409695154 0  -5.157560560414062 0.09447106214747865 0  -3.14779387667392 -0.6330563038825547 0  -3.148134455585257 0.4354299640428653 0  -0.8464439673630421 0.4159277415926296 0  -0.9918125625721008 -0.7191748422889824 0  -4.355349213295776 -1.234510499778242 0  1.582074659164868 -0.06850205959954866 0  2.400584045214166 1.204278622181321 0  5.102831660739063 0.03453404176596848 0  4.083259768981113 1.154272958349666 0  -3.992394834362243 -0.1621022234411988 0  0.4290302718942113 -1.225465289645401 0  -3.681487986394671 -1.310544246656267 0  -3.640289698916164 1.187023654838123 0  0.468851680921228 -0.447055967952278 0  3.315209904217932 0.05667935655546536 0  -2.541160649745046 -1.046980928586996 0  -1.45196684542695 1.044189935346116 0  -2.000844595891861 -1.207983108473125 0  -1.453092202970521 -1.061139264918894 0  -2.000050543938391 1.207806685704176 0  -2.548033154566413 1.04418993534851 0  4.13054585796652 -1.232871249381608 0  -0.3301617095463629 1.221692405319566 0  -0.2880491989587189 -1.359626628407983 0  -0.0758941643813178 0.132275811829787 0  2.826389221580753 -1.233168480096227 0  -2.922070412327736 0.7575752117792038 0  1.003070890178416 1.271347915034201 0  -5.319521816151902 -1.310543894393663 0  -1.070407062963812 0.7877698545098388 0  -4.562499863038985 -0.2302396981426722 0  -3.164226661545047 0.07179577787350272 0  -0.9091377812900333 0.132454654016971 0  4.116029045943655 -0.4851826871817362 0  5.316659189209927 -1.316659189208741 0  -0.9498828454673396 -0.4149758979014553 0  -4.037769805263969 0.6896174350675625 0  1.431664772855882 -1.327784137638992 0  -3.646693623568034 0.1600006358878044 0  -2.878371345483476 -0.7910345833001061 0  1.062603041385242 0.2894765870627741 0  -0.547955103783681 0.1635272504420374 0  -4.804809838419659 1.41016301576038 0  -3.042895319571192 -0.3694931303482478 0  -4.59252578392403 0.792267765362792 0  2.823271260730033 -0.5472430318427347 0  -4.28575390662405 -0.7521491832384866 0  -0.5524005545121191 -0.9037367558558163 0  1.815219025072439 1.388812135783969 0  -1.288398729718543 -0.8178399475601057 0  -5.424388493366639 1.35375165044146 0  -2.256991952837567 -1.049538527273222 0  -1.739586738723494 -1.052327527873255 0  -1.738827359988536 1.050180627239116 0  -2.257795730428802 1.049701225145305 0  -0.62222340523776 -0.5483611729237363 0  2.065188519029698 0.5424877383589943 0  0.1055865106318892 0.7347782870471022 0  1.013082573993895 -0.2061877611231605 0  -5.428323520618333 -0.4386412085227075 0  5.374041502384443 -0.5304401760993408 0  3.435185060219232 -1.377658617395091 0  -3.302377238490527 0.8841390072780534 0  -0.9902123298072768 -0.124175295282554 0  0.7186958547669859 0.8724503317343631 0  2.941237214953417 1.390391532351976 0  4.708037787864423 -1.340276032051348 0  5.395029680982659 1.395029680983341 0  3.591022587550188 1.348260650408605 0  2.759385971589342 0.4857447325740718 0  -0.6832705231418494 0.8879387563573758 0  5.437781298507145 0.5981501503262471 0  -2.698603003287285 1.617130043745112 0  -3.463358189947519 -1.013588318179017 0  1.710866040171871 -0.6978716337870808 0  3.642182982762737 0.4555704362064124 0  -2.699802128031161 -1.618310703146212 0  -1.3020054856637 1.619819977935582 0  -2.000000000004996 -1.566396763829867 0  -1.999999999994794 1.566396763830688 0  -1.247812462071684 -1.595232739507426 0  4.59429106759859 1.420052135572917 0  0.9448382581152466 -1.440259145469251 0  -0.116376100998861 -0.2606209011258676 0  -4.774521510507792 0.4245390872783272 0  -2.983910172370106 -0.1208000607277856 0  -3.353983741142061 1.576062863985777 0  -5.473352579109997 0.4917619255280954 0  -4.828650470275986 -1.493148538517745 0  4.639973657165532 -0.2833178611094909 0  -2.660279445404468 0.7699932347178977 0  -1.335045190775955 0.7744876666923373 0  -3.395669172689978 0.2584951122361346 0  2.279110606119369 -1.465899541383697 0  4.734317729212562 0.4520963557364723 0  -0.6334913028224612 1.584213953723378 0  2.121854101359879 -0.4289611127787379 0  -3.474459720833238 -0.4977581316675216 0  -1.066539898844178 0.3411379476537602 0  -3.361849707555382 -1.611428512420182 0  -4.099039818938317 0.3306400369415774 0  -2.935324777364672 0.354721898811665 0  -3.973578595052027 1.482940358734671 0  3.784450148635689 -0.0702780807301525 0  -1.191348122671212 -0.5614501189722798 0  -2.838672605956353 -0.5493179047027598 0  -1.184983441257359 0.5617520886612424 0  -2.811184099847449 0.5574240755049175 0  0.2702752249355158 -0.8003643570420809 0  -0.6945947797857237 -1.593893965175195 0  0.001175881878679056 1.504521009023778 0  0.6072931735145096 1.501814722697789 0  -3.991896293645949 -1.047264188412552 0  -3.734097395159253 -0.3261671578666079 0  -5.539652387691843 -0.8857154182585802 0  -4.395061924111849 1.563293728588296 0  0.2258327611651416 -0.08745142624872881 0  -3.774816634825771 0.8676973328379478 0  2.208484493569073 1.6256686312487 0  0.1309939514660535 -1.566169703482512 0  -5.551414360955331 0.9459842275970113 0  -4.04734138658365 -1.51163984963472 0  -4.947145019546805 -0.3299925153029702 0  4.320410447198621 0.6970857582435144 0  -4.707557346727139 -1.000565649857444 0  1.353711468973986 1.582551234446199 0  1.674156483558973 0.3266252271732694 0  -4.039105552973997 -0.4537604746027087 0  0.01051727619263377 -1.088858357362194 0  -0.2234942609176301 0.8619127912343982 0  -2.95903482691863 0.1219373374385197 0  -4.682467695920681 0.0804575682243254 0  5.535750224195656 -0.1525732643419722 0  -4.290083947414376 -0.0005258314026840717 0  1.136102562417988 0.7655312464039168 0  -2.816589394567214 0.9927597419785312 0  -2.645374456162409 -0.7645902451387543 0  4.18414576655837 1.624276131878667 0  0.7127337088822223 -0.9006358935856398 0  1.972418102153911 0.9727040774616764 0  -2.42199174813501 0.8591219219254587 0  -2.418604734200992 -0.8552987735117754 0  -5.573597213364169 -0.03612430678117123 0  2.024792870869397 0.05574071630590883 0  -1.578875191508968 0.861424470724936 0  -1.54706008231699 -0.8630049102346303 0  3.848662181064435 -1.569601980075533 0  -2.000000000003871 -0.9746445732264465 0  -1.99999999
[...]
<PointData  Vectors="f_22"> 
<DataArray  type="Float64"  Name="f_22"  NumberOfComponents="3" format="ascii">0.0000000000000000e+00 0.0000000000000000e+00 0.0000000000000000e+00  0.0000000000000000e+00 0.0000000000000000e+00 0.0000000000000000e+00  0.0000000000000000e+00 0.0000000000000000e+00 0.0000000000000000e+00  0.0000000000000000e+00 0.0000000000000000e+00 0.0000000000000000e+00  9.9999995859702662e-01 0.0000000000000000e+00 0.0000000000000000e+00  9.9999995859702662e-01 0.0000000000000000e+00 0.0000000000000000e+00  0.0000000000000000e+00 0.0000000000000000e+00 0.0000000000000000e+00  0.0000000000000000e+00 0.0000000000000000e+00 0.0000000000000000e+00  0.0000000000000000e+00 0.0000000000000000e+00 0.0000000000000000e+00  0.0000000000000000e+00 0.0000000000000000e+00 0.0000000000000000e+00  0.0000000000000000e+00 0.0000000000000000e+00 0.0000000000000000e+00  0.0000000000000000e+00 0.0000000000000000e+00 0.0000000000000000e+00  0.0000000000000000e+00 0.0000000000000000e+00 0.0000000000000000e+00  0.0000000000000000e+00 0.0000000000000000e+00 0.0000000000000000e+00  0.0000000000000000e+00 0.0000000000000000e+00 0.0000000000000000e+00  0.0000000000000000e+00 0.0000000000000000e+00 0.0000000000000000e+00  0.0000000000000000e+00 0.0000000000000000e+00 0.0000000000000000e+00  0.0000000000000000e+00 0.0000000000000000e+00 0.0000000000000000e+00  0.0000000000000000e+00 0.0000000000000000e+00 0.0000000000000000e+00  0.0000000000000000e+00 0.0000000000000000e+00 0.0000000000000000e+00  0.0000000000000000e+00 0.0000000000000000e+00 0.0000000000000000e+00  0.0000000000000000e+00 0.0000000000000000e+00 0.0000000000000000e+00  0.0000000000000000e+00 0.0000000000000000e+00 0.0000000000000000e+00  0.0000000000000000e+00 0.0000000000000000e+00 0.0000000000000000e+00  0.0000000000000000e+00 0.0000000000000000e+00 0.0000000000000000e+00  0.0000000000000000e+00 0.0000000000000000e+00 0.0000000000000000e+00  0.0000000000000000e+00 0.0000000000000000e+00 0.0000000000000000e+00  0.0000000000000000e+00 0.0000000000000000e+00 0.0000000000000000e+00  0.0000000000000000e+00 0.0000000000000000e+00 0.0000000000000000e+00  3.2584365440906604e-01 -2.0654520866980771e-04 0.0000000000000000e+00  5.5717850699335847e-01 -4.0730380508566033e-04 0.0000000000000000e+00  6.8816806217813342e-01 -3.8292484602566102e-04 0.0000000000000000e+00  7.3001200264363042e-01 -3.1642602319327802e-05 0.0000000000000000e+00  6.8811385177958662e-01 3.2956436504779865e-04 0.0000000000000000e+00  5.5708322780184838e-01 4.0382897630973126e-04 0.0000000000000000e+00  3.2572004772088869e-01 1.8925306025245137e-04 0.0000000000000000e+00  0.0000000000000000e+00 0.0000000000000000e+00 0.0000000000000000e+00  0.0000000000000000e+00 0.0000000000000000e+00 0.0000000000000000e+00  0.0000000000000000e+00 0.0000000000000000e+00 0.0000000000000000e+00  0.0000000000000000e+00 0.0000000000000000e+00 0.0000000000000000e+00  0.0000000000000000e+00 0.0000000000000000e+00 0.0000000000000000e+00  0.0000000000000000e+00 0.0000000000000000e+00 0.0000000000000000e+00  0.0000000000000000e+00 0.0000000000000000e+00 0.0000000000000000e+00  0.0000000000000000e+00 0.0000000000000000e+00 0.0000000000000000e+00  0.0000000000000000e+00 0.0000000000000000e+00 0.0000000000000000e+00  0.0000000000000000e+00 0.0000000000000000e+00 0.0000000000000000e+00  0.0000000000000000e+00 0.0000000000000000e+00 0.0000000000000000e+00  0.0000000000000000e+00 0.0000000000000000e+00 0.0000000000000000e+00  0.0000000000000000e+00 0.0000000000000000e+00 0.0000000000000000e+00  0.0000000000000000e+00 0.0000000000000000e+00 0.0000000000000000e+00  0.0000000000000000e+00 0.0000000000000000e+00 0.0000000000000000e+00  0.0000000000000000e+00 0.0000000000000000e+00 0.0000000000000000e+00  0.0000000000000000e+00 0.0000000000000000e+00 0.0000000000000000e+00  0.0000000000000000e+00 0.0000000000000000e+00 0.0000000000000000e+00  0.0000000000000000e+00 0.0000000000000000e+00 0.0000000000000000e+00  0.0000000000000000e+00 0.0000000000000000e+00 0.0000000000000000e+00  0.0000000000000000e+00 0.0000000000000000e+00 0.0000000000000000e+00  0.0000000000000000e+00 0.0000000000000000e+00 0.0000000000000000e+00  0.0000000000000000e+00 0.0000000000000000e+00 0.0000000000000000e+00  3.2366929064961408e-01 -7.5351717486374793e-04 0.0000000000000000e+00  5.5606078245156776e-01 -1.2964454889581745e-03 0.0000000000000000e+00  6.8974929545292107e-01 -1.0469679054195761e-03 0.0000000000000000e+00  7.3330863801462864e-01 -3.4903739561908351e-05 0.0000000000000000e+00  6.9041131465631811e-01 1.1581545382426163e-03 0.0000000000000000e+00  5.5629161789560500e-01 1.3591169216968064e-03 0.0000000000000000e+00  3.2370638539536445e-01 7.9456175251636308e-04 0.0000000000000000e+00  9.9999995859702662e-01 0.0000000000000000e+00 0.0000000000000000e+00  9.9999995859702662e-01 0.0000000000000000e+00 0.0000000000000000e+00  9.9999995859702662e-01 0.0000000000000000e+00 0.0000000000000000e+00  9.9999995859702662e-01 0.0000000000000000e+00 0.0000000000000000e+00  9.9999995859702662e-01 0.0000000000000000e+00 0.0000000000000000e+00  9.9999995859702662e-01 0.0000000000000000e+00 0.0000000000000000e+00  9.9999995859702662e-01 0.0000000000000000e+00 0.0000000000000000e+00  9.9999995859702662e-01 0.0000000000000000e+00 0.0000000000000000e+00  9.9999995859702662e-01 0.0000000000000000e+00 0.0000000000000000e+00  9.9999995859702662e-01 0.0000000000000000e+00 0.0000000000000000e+00  9.9999995859702662e-01 0.0000000000000000e+00 0.0000000000000000e+00  9.9999995859702662e-01 0.0000000000000000e+00 0.0000000000000000e+00  9.9999995859702662e-01 0.0000000000000000e+00 0.0000000000000000e+00  9.9999995859702662e-01 0.0000000000000000e+00 0.0000000000000000e+00  9.9999995859702662e-01 0.0000000000000000e+00 0.0000000000000000e+00  9.9999995859702662e-01 0.0000000000000000e+00 0.0000000000000000e+00  9.9999995859702662e-01 0.0000000000000000e+00 0.0000000000000000e+00  9.9999995859702662e-01 0.0000000000000000e+00 0.0000000000000000e+00  9.9999995859702662e-01 0.0000000000000000e+00 0.0000000000000000e+00  9.9999995859702662e-01 0.0000000000000000e+00 0.0000000000000000e+00  9.9999995859702662e-01 0.0000000000000000e+00 0.0000000000000000e+00  9.9999995859702662e-01 0.0000000000000000e+00 0.0000000000000000e+00  9.9999995859702662e-01 0.0000000000000000e+00 0.0000000000000000e+00  9.9999995859702662e-01 0.0000000000000000e+00 0.0000000000000000e+00  8.2449082332661727e-01 2.1167445501242312e-02 0.0000000000000000e+00  7.3194740753028897e-01 -7.1565293561329877e-03 0.0000000000000000e+00  6.6363696699310326e-01 4.2504275976480474e-02 0.0000000000000000e+00  7.1434587501260338e-01 -6.7342455071086146e-02 0.0000000000000000e+00  7.5815190471308336e-01 1.4578128684436047e-05 0.0000000000000000e+00  7.0104488408995413e-01 -6.2407670376379627e-02 0.0000000000000000e+00  7.2109476386352789e-01 1.6805326104120670e-03 0.0000000000000000e+00  7.7487778057892820e-01 7.5271496694074874e-02 0.0000000000000000e+00  3.8718618946765732e-01 -1.1982211493997194e-01 0.0000000000000000e+00  3.6353111605939409e-01 1.1639506406685801e-01 0.0000000000000000e+00  6.3315963149453447e-01 -3.0998293567591324e-02 0.0000000000000000e+00  6.4603360169370871e-01 5.5973164358173065e-03 0.0000000000000000e+00  3.7247853140607073e-01 1.1902128229092933e-01 0.0000000000000000e+00  2.4527936005682099e-01 -1.0183609974583709e-01 0.0000000000000000e+00  8.0841914769669743e-01 3.4103934665698513e-02 0.0000000000000000e+00  9.4588755850730255e-01 -2.0322922240519996e-02 0.0000000000000000e+00  6.3930208383918918e-01 2.1047676963546608e-02 0.0000000000000000e+00  6.1356160839836804e-01 -5.3713975398598677e-03 0.0000000000000000e+00  6.1621873892293710e-01 -1.7239102119326745e-03 0.0000000000000000e+00  6.0213427218807281e-01 6.3573206793414256e-03 0.0000000000000000e+00  4.5070450484597069e-01 -1.5470752270894714e-02 0.0000000000000000e+00  1.0373795245233604e-01 1.2146799002339634e-01 0.0000000000000000e+00  5.3994806911223159e-02 3.2072970228083988e-02 0.0000000000000000e+00  5.1725243880370420e-02 -3.0743948243353920e-02 0.0000000000000000e+00  1.0279270480375324e-01 -1.2116984245431861e-01 0.0000000000000000e+00  6.1076082382306807e-01 -3.8154715607201439e-03 0.0000000000000000e+00  5.6377349327309367e-01 -1.4304092913110177e-02 0.0000000000000000e+00  5.7043016553799586e-01 1.3659961235733182e-03 0.0000000000000000e+00  4.3082878227090243e-01 4.8131774912065245e-02 0.0000000000000000e+00  7.3447511438308699e-01 -5.4900510900465717e-04 0.0000000000000000e+00  7.0946466334988678e-01 1.3430176734314572e-01 0.0000000000000000e+00  7.9942979930454217e-01 -1.1073554395111064e-01 0.0000000000000000e+00  9.2887340372841243e-01 4.6142503243685545e-02 0.0000000000000000e+00  7.8052215256744983e-01 -9.5764412663670070e-02 0.0000000000000000e+00  4.5044078795564374e-01 1.2351574770243767e-02 0.0000000000000000e+00  7.8390229013343937e-01 -2.7877280618095255e-03 0.0000000000000000e+00  4.5870498177275570e-01 8.6664364802776055e-03 0.0000000000000000e+00  7.3114809862358121e-01 6.6173858244666339e-05 0.0000000000000000e+00  4.9363180475101498e-01 2.6042785402160952e-03 0.0000000000000000e+00  7.5908537181674784e-01 9.8004576716512158e-03 0.0000000000000000e+00  3.9123042020638377e-01 -4.0557081471728734e-02 0.0000000000000000e+00  3.8695461340003218e-01 3.4778841713649429e-02 0.0000000000000000e+00  4.4781460639438758e-01 -4.5016010857524068e-02 0.0000000000000000e+00  7.7759766951481823e-01 -3.2985982249308494e-02 0.0000000000000000e+00  7.4278898663627202e-01 7.0656511693346143e-04 0.0000000000000000e+00  3.6756840878628971e-01 2.0898787542589797e-01 0.0000000000000000e+00  4.3503782700959082e-01 1.0219448156279066e-01 0.0000000000000000e+00  1.6348804510980344e-01 6.0626401471370037e-02 0.0000000000000000e+00  4.1140386671998203e-01 -1.0108614559418504e-01 0.0000000000000000e+00  1.6363495346434920e-01 -6.0331524347176382e-02 0.0000000000000000e+00  3.7158415881066664e-01 -2.0939564424440216e-01 0.0000000000000000e+00  4.5886027540401830e-01 -2.2419963538645748e-03 0.0000000000000000e+00  3.4314230564454573e-01 7.5992174330788489e-02 0.0000000000000000e+00  2.5443203839795647e-01 -5.9817568908845875e-02 0.0000000000000000e+00  8.9469112005598606e-01 1.4229606632276582e-02 0.0000000000000000e+00  4.5016957312200617e-01 -6.0562699853791797e-03 0.0000000000000000e+00  6.4211708193007189e-01 -1.9335173733261404e-01 0.0000000000000000e+00  3.9225835025251798e-01 2.3835577621296195e-02 0.0000000000000000e+00  4.2216273707763347e-01 1.8766670205536491e-03 0.0000000000000000e+00  7.3118445472809690e-01 1.0519803328495350e-01 0.0000000000000000e+00  7.3360233042867262e-01 4.6899216178857665e-03 0.0000000000000000e+00  8.8391675366781508e-01 -2.0560707056235319e-02 0.0000000000000000e+00  9.8706925703919723e-01 9.3862120352482311e-03 0.0000000000000000e+00  6.9363897139251462e-01 -2.7869576969443404e-03 0.0000000000000000e+00  4.2195997268491098e-01 -5.3933547326928699e-04 0.0000000000000000e+00  9.4612517595825829e-01 -3.9960466403236715e-02 0.0000000000000000e+00  6.5798572895339091e-01 -2.7819670284855973e-02 0.0000000000000000e+00  3.7804341927554708e-01 -1.5035808977785642e-02 0.0000000000000000e+00  7.8748935561182021e-01 -1.8221237779848912e-02 0.0000000000000000e+00  6.1735336136237284e-01 2.0280840943418618e-01 0.0000000000000000e+00  7.8398131639348212e-01 1.6032821619521583e-02 0.0000000000000000e+00  9.4591427130845340e-01 1.9068746292559648e-02 0.0000000000000000e+00  3.6806466369340846e-01 -3.9035521045498889e-03 0.0000000000000000e+00  8.4719390225634361e-01 1.1629989480686639e-01 0.0000000000000000e+00  6.2425770982577000e-01 -1.0457260978078657e-02 0.0000000000000000e+00  6.8857734484631905e-01 -7.7058198679119116e-03 0.0000000000000000e+00  6.3739812217192326e-01 1.8273454156368892e-02 0.0000000000000000e+00  5.8252604532864649e-01 -1.0086339426433896e-01 0.0000000000000000e+00  3.5692228094822542e-01 9.5707697193833288e-03 0.0000000000000000e+00  7.3722011528368259e-01 -1.0011379654077014e-01 0.0000000000000000e+00  4.0082926656432183e-01 -1.4496752709840224e-03 0.0000000000000000e+00  3.3889065612818187e-01 1.5179921934956048e-01 0.0000000000000000e+00  3.9842162691411331e-01 -4.2411279363849239e-02 0.0000000000000000e+00  4.0203038523906715e-01 4.2850765276885458e-02 0.0000000000000000e+00  3.3859808593276303e-01 -1.5208751035634677e-01 0.0000000000000000e+00  8.3559539783325043e-01 -7.1160500572548815e-02 0.0000000000000000e+00  6.9761353516369895e-01 1.3171051224899633e-02 0.0000000000000000e+00  6.7191642516118788e-01 5.9377681931047248e-02 0.0000000000000000e+00  7.9982101245583925e-01 -1.2096132646466992e-02 0.0000000000000000e+00  7.0102928675510945e-01 1.5799702865985643e-03 0.0000000000000000e+00  6.8316432480585076e-01 -8.1707528523100657e-04 0.0000000000000000e+00  3.8434797311128377e-01 -2.8365255859017875e-03 0.0000000000000000e+00  5.8105107815639379e-01 -1.0430223559857346e-01 0.0000000000000000e+00  9.9298462421352240e-01 -6.2952082886950705e-03 0.0000000000000000e+00  5.8976976505517120e-01 4.0250442573590464e-02 0.0000000000000000e+00  3.7379437497516577e-01 3.9866476560277402e-03 0.0000000000000000e+00  4.0902254194559740e-01 -1.0132342564463362e-03 0.0000000000000000e+00  3.8220301830149517e-01 4.1629394372198758e-04 0.0000000000000000e+00  4.0061280962237311e-01 2.7274637666226727e-03 0.0000000000000000e+00  7.0218681122630910e-01 7.5824759230640557e-03 0.0000000000000000e+00  6.0053322486807659e-01 1.0801687651030265e-01 0.0000000000000000e+00  6.7000829598391221e-01 7.5536882387991630e-04 0.0000000000000000e+00  8.1301261481343784e-02 -5.2601567906952709e-02 0.0000000000000000e+00  5.2341561513433055e-01 7.3928158450669149e-02 0.0000000000000000e+00  6.5634405326245493e-01 -1.9151335592214110e-02 0.0000000000000000e+00  7.0093045730200187e-01 3.8484327349524922e-03 0.0000000000000000e+00  8.1141376530938558e-02 5.2273200268258553e-02 0.0000000000000000e+00  -4.2791491367888151e-02 3.3305479407079917e-02 0.0000000000000000e+00  -5.6683854920638301e-02 3.4626525330759168e-02 0.0000000000000000e+00  -5.6735953964214908e-02 -3.4591391784561144e-02 0.0000000000000000e+00  -2.5527088919226691e-02 -3.9214127974338327e-02 0.0000000000000000e+00  3.6763468142877270e-01 9.1220028982562905e-04 0.0000000000000000e+00  3.0045084230715974e-01 -1.7229167401326358e-02 0.0000000000000000e+00  8.7801594856062337e-01 -2.8300907897638995e-02 0.0000000000000000e+00  7.0675584972418659e-01 -5.4014944568312072e-03 0.0000000000000000e+00  9.3501947322529877e-01 4.2989889079538428e-02 0.0000000000000000e+00  2.1443574466189638e-01 -2.8159899112315666e-02 0.0000000000000000e+00  6.9197178865966558e-01 -1.5023040143715277e-03 0.0000000000000000e+00  3.2283451711689176e-01 3.0644670920605857e-03 0.0000000000000000e+00  7.1905417989232412e-01 -1.1580193495553566e-03 0.0000000000000000e+00  6.3898725888661423e-01 -2.2423634462589973e-01 0.0000000000000000e+00  7.9906162953148541e-01 8.5825719720162980e-02 0.0000000000000000e+00  8.0684659386279756e-01 -4.6212999584135946e-02 0.0000000000000000e+00  3.2461665194531825e-01 -5.2915433487458466e-03 0.0000000000000000e+00  6.9728433630626774e-01 1.5046197532895898e-03 0.0000000000000000e+00  8.1475130244009208e-02 4.1109333901856095e-02 0.0000000000000000e+00  7.2256739612470011e-01 -1.0866823273448657e-02 0.0000000000000000e+00  7.3735943885788324e-01 6.6763576208326000e-02 0.0000000000000000e+00  9.8012718409420641e-01 2.0086345752100828e-02 0.0000000000000000e+00  1.9698352869301125e-01 2.3825863043169474e-02 0.0000000000000000e+00  7.3512388494948622e-01 -1.5318433276817044e-02 0.0000000000000000e+00  8.8235379642886580e-01 -1.2357071096722534e-01 0.0000000000000000e+00  3.1040500410008653e-01 -1.4104577689428136e-02 0.0000000000000000e+00  7.3753502938020066e-01 -6.4102497090586061e-04 0.0000000000000000e+00  9.3545940684936968e-01 -4.5770749474392879e-02 0.0000000000000000e+00  7.9612801421092316e-01 1.8395343858980504e-01 0.0000000000000000e+00  9.3376306342867044e-01 4.6856840838390666e-02 0.0000000000000000e+00  7.9762595247420021e-01 -1.8757022924164629e-01 0.0000000000000000e+00  6.3128340344735157e-01 -5.4627624813560732e-02 0.0000000000000000e+00  6.6793687645802638e-02 -4.1363778482885305e-02 0.0000000000000000e+00  2.0161542561081569e-01 3.3337818694674247e-02 0.0000000000000000e+00  2.4999420019739821e-01 1.9608427143953309e-02 0.0000000000000000e+00  5.2738456285374491e-01 2.8465423285245980e-02 0.0000000000000000e+00  7.5677550388286263e-01 3.0019806115263319e-02 0.0000000000000000e+00  5.9537030779465472e-01 1.8771844316541218e-03 0.0000000000000000e+00  2.7714182630556444e-01 -5.0864863286560775e-03 0.0000000000000000e+00  8.6907210091323628e-01 -7.9751334448664273e-03 0.0000000000000000e+00  5.9778417047444765e-01 -4.5985167758859365e-02 0.0000000000000000e+00  2.3475947890013260e-01 3.0442464149583017e-03 0.0000000000000000e+00  1.8146175611053150e-01 -2.3991731188708836e-02 0.0000000000000000e+00  5.7510517463742061e-01 -1.8043952270785837e-03 0.0000000000000000e+00  2.9739310427963817e-01 1.1330042731136789e-02 0.0000000000000000e+00  7.1833878793817529e-01 3.1306146797325635e-03 0.0000000000000000e+00  6.4839014595133426e-01 2.7318531133130939e-03 0.0000000000000000e+00  5.5414953561045799e-01 8.2273467028321015e-03 0.0000000000000000e+00  2.4007007889793336e-01 7.6312532137721399e-03 0.0000000000000000e+00  7.5269913789170828e-01 1.1912589909994165e-02 0.0000000000000000e+00  7.1664734538672725e-01 2.2142171234295179e-02 0.0000000000000000e+00  4.5504744197146213e-01 -6.4926631329883730e-02 0.0000000000000000e+00  6.0453930992466276e-01 8.0436303496479303e-02 0.0000000000000000e+00  9.4406788809963615e-01 -4.4137268850613594e-02 0.0000000000000000e+00  7.4001681217336257e-01 -1.2139316952834637e-03 0.0000000000000000e+00  7.2658881166388545e-01 -2.5790720071627887e-04 0.0000000000000000e+00  7.5110102934013967e-01 1.5963244346941290e-05 0.0000000000000000e+00  6.3587428520922151e-01 2.9600883507838398e-02 0.0000000000000000e+00  4.6416642177291462e-01 -1.9409281119773839e-01 0.0000000000000000e+00  6.4661098693979657e-01 2.2189691541214307e-01 0.0000000000000000e+00  2.5063767065459258e-01 6.7626021647673523e-04 0.0000000000000000e+00  5.7583189353646669e-01 -4.0516532244000321e-02 0.0000000000000000e+00  5.5434658436954443e-01 1.5273892713217408e-02 0.0000000000000000e+00  5.8259008687452629e-01 -1.8386380496308111e-01 0.0000000000000000e+00  5.8984815102790344e-01 1.8075973782341390e-01 0.0000000000000000e+00  7.3361148153143629e-01 6.2524327315522518e-05 0.0000000000000000e+00  7.6862431703165346e-01 1.7070165886722537e-03 0.0000000000000000e+00  7.3417668415475068e-01 7.2783101041839257e-02 0.0000000000000000e+00  7.2483038058822047e-01 -7.8346230308530565e-02 0.0000000000000000e+00  2.8144579240611112e-01 -1.1207411125665485e-03 0.0000000000000000e+00  5.0181704412251582e-01 3.6346543425405366e-02 0.0000000000000000e+00  5.0180461778437180e-01 -3.6372972077641667e-02 0.0000000000000000e+00  2.5885848647039800e-01 -1.3844488930770096e-01 0.0000000000000000e+00  5.7593795711746454e-01 4.5623629404930250e-03 0.0000000000000000e+00  5.0160089514064021e-01 1.2157222919822205e-01 0.0000000000000000e+00  8.3520084482586388e-01 -2.7512073171280299e-03 0.0000000000000000e+00  5.6173804328580079e-01 5.9795588879515851e-04 0.0000000000000000e+00  5.8068145536178595e-01 -6.5472111302556702e-04 0.0000000000000000e+00  5.5831932720459432e-01 8.0932933954077375e-03 0.0000000000000000e+00  1.7554705256872660e-01 9.1983105360318312e-02 0.0000000000000000e+00  4.6519680090591481e-01 -1.2288215198110004e-01 0.0000000000000000e+00  5.9872937375704116e-01 -1.0610406761586970e-02 0.0000000000000000e+00  6.0717867387108493e-01 -2.6390934157976328e-03 0.0000000000000000e+00  2.5171643401444177e-01 -6.4796953260789288e-04 0.0000000000000000e+00  2.3553920921980132e-01 -4.7922320088410898e-03 0.0000000000000000e+00  7.8873941407035297e-01 -4.3218139105771561e-0