<?xml version="1.0"?>
<VTKFile type="UnstructuredGrid"  version="0.1"  >
<UnstructuredGrid>
<Piece  NumberOfPoints="622" NumberOfCells="1116">
<Points>
<DataArray  type="Float64"  NumberOfComponents="3"  format="ascii">-6 -2 0  -6 2 0  6 2 0  6 -2 0  -2.8 0 0  -1.2 0 0  -5.500000000001853 -2 0  -5.000000000003705 -2 0  -4.500000000005556 -2 0  -4.000000000007409 -2 0  -3.50000000000926 -2 0  -3.000000000011112 -2 0  -2.500000000012963 -2 0  -2.000000000014814 -2 0  -1.500000000016665 -2 0  -1.000000000018516 -2 0  -0.5000000000203677 -2 0  -2.204547655537681e-11 -2 0  0.4999999999796305 -2 0  0.9999999999814779 -2 0  1.499999999983327 -2 0  1.999999999985175 -2 0  2.499999999987029 -2 0  2.999999999988882 -2 0  3.499999999990735 -2 0  3.999999999992589 -2 0  4.49999999999444 -2 0  4.999999999996293 -2 0  5.499999999998147 -2 0  6 -1.500000000001387 0  6 -1.000000000002774 0  6 -0.5000000000041616 0  6 -5.505595979116151e-12 0  6 0.4999999999958384 0  6 0.9999999999972258 0  6 1.499999999998613 0  5.500000000001853 2 0  5.000000000003705 2 0  4.500000000005556 2 0  4.000000000007409 2 0  3.50000000000926 2 0  3.000000000011112 2 0  2.500000000012963 2 0  2.000000000014814 2 0  1.500000000016665 2 0  1.000000000018516 2 0  0.5000000000203677 2 0  2.204547655537681e-11 2 0  -0.4999999999796305 2 0  -0.9999999999814779 2 0  -1.499999999983327 2 0  -1.999999999985175 2 0  -2.499999999987029 2 0  -2.999999999988882 2 0  -3.499999999990735 2 0  -3.999999999992589 2 0  -4.49999999999444 2 0  -4.999999999996293 2 0  -5.499999999998147 2 0  -6 1.500000000001387 0  -6 1.000000000002774 0  -6 0.5000000000041616 0  -6 5.505595979116151e-12 0  -6 -0.4999999999958384 0  -6 -0.9999999999972258 0  -6 -1.499999999998613 0  -2.796147781337886 -0.07841371226233997 0  -2.784628224322852 -0.1560722576115546 0  -2.765552268586196 -0.2322277418021561 0  -2.739103626009626 -0.30614674589063 0  -2.705537011479457 -0.3771173894593519 0  -2.665175689843037 -0.4444561864141836 0  -2.618408362691456 -0.5075146273293722 0  -2.565685424950688 -0.5656854249477874 0  -2.507514627332613 -0.6184083626887972 0  -2.444456186417533 -0.6651756898407991 0  -2.377117389462776 -0.7055370114776264 0  -2.306146745894456 -0.7391036260080417 0  -2.232227741806235 -0.7655522685849585 0  -2.15607225761588 -0.784628224321992 0  -2.078413712266957 -0.7961477813374315 0  -2.000000000003407 -0.7999999999999998 0  -1.921586287739523 -0.7961477813380696 0  -1.843927742389945 -0.7846282243231506 0  -1.767772258198879 -0.7655522685865098 0  -1.693853254109962 -0.7391036260098718 0  -1.622882610540873 -0.7055370114795768 0  -1.555543813585629 -0.6651756898429115 0  -1.49248537267008 -0.6184083626910072 0  -1.434314575051535 -0.5656854249500112 0  -1.381591637310384 -0.5075146273316149 0  -1.334824310158267 -0.4444561864161359 0  -1.294462988521423 -0.3771173894609975 0  -1.260896373990956 -0.3061467458920351 0  -1.234447731414138 -0.2322277418032578 0  -1.215371775677287 -0.156072257612254 0  -1.203852218662147 -0.07841371226267954 0  -1.203852218662115 0.07841371226235888 0  -1.215371775677132 0.156072257611478 0  -1.234447731413795 0.232227741802127 0  -1.260896373990353 0.3061467458905811 0  -1.294462988520456 0.3771173894591898 0  -1.334824310156812 0.444456186413959 0  -1.381591637308413 0.5075146273292139 0  -1.434314575049147 0.5656854249476236 0  -1.492485372667197 0.6184083626886415 0  -1.555543813582104 0.6651756898405565 0  -1.62288261053673 0.7055370114773629 0  -1.693853254105125 0.7391036260078683 0  -1.767772258193396 0.7655522685848468 0  -1.84392774238373 0.7846282243219146 0  -1.921586287732977 0.7961477813374253 0  -1.999999999996558 0.8 0  -2.078413712260516 0.7961477813380661 0  -2.156072257610207 0.7846282243231205 0  -2.232227741801178 0.7655522685864928 0  -2.306146745890059 0.7391036260098632 0  -2.377117389459098 0.7055370114795929 0  -2.444456186414405 0.6651756898428894 0  -2.50751462732998 0.6184083626909587 0  -2.565685424948549 0.5656854249499272 0  -2.61840836268981 0.5075146273313792 0  -2.665175689841831 0.4444561864159886 0  -2.705537011478692 0.3771173894607835 0  -2.739103626009108 0.3061467458918818 0  -2.76555226858589 0.2322277418031643 0  -2.784628224322724 0.1560722576122001 0  -2.796147781337853 0.07841371226267957 0  0.6720367661319522 0.1312687487860887 0  -4.389489086394485 0.3544472233398538 0  -3.816221554046232 -0.6097988664512611 0  -3.552726516474419 0.9342959806851625 0  -0.2536610443052337 0.8162373554653355 0  -0.1843238977799138 -0.6649951410982842 0  -3.613359951620445 0.1086570650978273 0  -3.146954163409593 -1.074378179335012 0  -0.4255266515582625 0.07734891565364931 0  -0.9413731612925856 1.168014724254929 0  -2.947764053183577 1.200029094390044 0  -0.8319852757411681 -1.058626838707328 0  2.675418990747819 -1.137325591670363e-12 0  -2.602010642259726 -1.287560129290477 0  -2.334401622060699 1.335006108940604 0  -1.524718496628401 1.32890816230333 0  -1.369813829148039 -1.26145150481762 0  -3.294065651892671 -0.4630240940010318 0  -2.072749204569071 -1.388981302138359 0  -0.7546165313921411 0.5601792161340381 0  -3.224879719581335 0.4382689715877901 0  -0.7073137361349826 -0.4625305410752652 0  4.326242945813966 0.3262429458150917 0  -3.187880061217201 0.07437712177460168 0  -2.94792024259867 0.7030255657465158 0  -2.678809277907896 0.9152683582887104 0  -4.911626141576894 -0.5700186648601188 0  -2.980647654587299 -0.5685006168686053 0  -2.769438919323564 -0.8202775213660614 0  -1.936950121013948 1.220669938589229 0  -0.8971643766260747 0.2762459428874499 0  -0.8760878018253068 -0.06836412137772707 0  -1.086827485441145 0.6772548942594016 0  -1.31355927028917 0.8808768148414213 0  -1.034266382739347 -0.5912381576649568 0  -1.241594139118264 -0.836771920085274 0  1.667161185638911 -0.6367996576268693 0  1.778189842800902 0.7191719841256095 0  -3.065106827511819 -0.266795371500425 0  3.714311277362231 -0.7275465302492842 0  -1.728329421201519 -1.09954751473283 0  4.870629493137888 -0.7325040699186681 0  -3.024707894719303 0.2567561910603656 0  -4.375540207252226 1.228935704312058 0  -2.272077148001781 -1.086192861256262 0  3.351408248797803 0.9175227128129597 0  -5.141847419540732 0.8091901960109126 0  0.5769368286199241 1.111816231125821 0  0.7411482978492124 -1.079569101289617 0  -1.074013749991219 0.430231207546053 0  -1.04664573441257 -0.3358382377487088 0  -2.439195336951085 0.9224778883059374 0  -2.902607676587358 0.4360473765597399 0  -1.629450174302152 1.035617385691805 0  -2.146859933125513 1.032375363966426 0  2.587625196444542 -0.9999926061845814 0  -2.529286802957126 -0.8830616815739111 0  -1.493798157676768 -0.8794705728517196 0  -1.932158132383022 -1.026681566564148 0  -4.09956359341904 -0.1372485582942864 0  5.055802064425553 1.050933510837308 0  -4.413659685984891 -1.207626391697488 0  -4.961411026474009 0.1201902955685026 0  -3.771151641156835 -1.303594976371997 0  -3.001321503506133 -0.04919177107285733 0  -3.881733605683001 0.5124517634812003 0  -0.1971627317996802 -1.336445372382849 0  -2.742825060181767 0.6732573903735507 0  2.520439429199979 1.129372838786189 0  -1.026326428668429 0.1384273198437734 0  -2.779290004861729 -0.5844691722665721 0  -2.895095740820851 -0.4261289730972082 0  -1.275682076193407 0.6630703172777138 0  0.1045291701958869 0.3433373435296472 0  5.175560481258801 0.0608563229178163 0  -1.211574424201636 -0.5847362589868093 0  -1.85847006217035 1.007917631940711 0  4.152535916385823 1.131901130662082 0  -1.04878257200685 -0.1253529988863012 0  1.432836501626023 0.05634449574318775 0  3.560672936003603 0.01188897172456759 0  -3.351823698389408 -0.1821329582635926 0  -5.145153363200735 -1.259166339382508 0  0.03473693330309885 -0.1724947236036572 0  -4.377830921337186 -0.6172564090242229 0  -0.3943750728122595 1.410897156959435 0  -1.661073679471639 -0.9342065000197183 0  -1.49086536677686 0.8331714487926741 0  -2.584486130952032 0.7871482690034864 0  4.270535884593893 -1.259607924744415 0  -1.757417028085795 -1.505182186951191 0  -3.430586920998477 1.425579221231371 0  -2.917598827418652 -0.2298465409534677 0  -2.328978331116049 -0.9300959620317677 0  -2.148543000691344 -0.9751580214451921 0  1.002654111360038 -0.4521702885594788 0  -4.628651824080903 -0.1127998710567241 0  -2.948904386702482 0.1555943115410545 0  0.4165242577134774 -0.5629432649478633 0  -3.698137692471105 -0.3173027948676715 0  -3.491400684461791 -0.7926319721650269 0  -0.3844454817728994 0.4680628696134375 0  -3.207830713508533 0.9778749990559993 0  3.229909751065535 -1.326302454776001 0  5.330007715336748 -1.312905173261894 0  -2.649214054100534 -0.713314536278899 0  1.342022964818772 -1.328315248672686 0  -2.556460939068198 1.202372762828344 0  -0.3497819755044588 -0.3080427614060888 0  -4.928440909495523 1.387622767511967 0  1.309170811945155 1.337467055109531 0  -1.352031940181449 -0.7151198948590243 0  -0.6132855723904642 0.9519045895123004 0  4.266838388406324 -0.3707357390867402 0  -3.834389788310238 1.371594798941152 0  -1.187890214580146 0.4851427123079557 0  -1.109118888029193 0.3185947354467283 0  0.1837819401738013 1.234799661476361 0  1.108165254659559 0.6237223548284967 0  -0.5266600156584522 -0.8113991260886402 0  -4.643822083543982 0.7834094684931707 0  -1.146235204666366 -0.4027330721405781 0  2.049029845992713 -0.2664662499985428 0  2.002665761665898 -1.328912351029848 0  -1.678783505586872 0.8978832065736417 0  -2.049499525232052 0.9483890761590005 0  -2.229972236535132 0.9181006323151361 0  -3.033763529945482 -1.54240494280775 0  -3.562344364746847 0.5622550957224539 0  -5.524396842903405 -0.2709714867672603 0  -0.9710982764034376 -1.549038578476423 0  3.058819320130555 -0.5375106252795963 0  -4.170365230099585 0.7342553699229977 0  -1.045878746461381 -8.187420622554697e-05 0  -1.864822945411764 -0.9219031104673102 0  -0.6251005091687033 -0.2120650512195049 0  2.317562622406059 0.4886417799113238 0  -0.6674371191466613 0.1483993095055008 0  -2.705757882979874 1.609712312948224 0  
[...]
<PointData  Vectors="f_22"> 
<DataArray  type="Float64"  Name="f_22"  NumberOfComponents="3" format="ascii">0.0000000000000000e+00 0.0000000000000000e+00 0.0000000000000000e+00  0.0000000000000000e+00 0.0000000000000000e+00 0.0000000000000000e+00  0.0000000000000000e+00 0.0000000000000000e+00 0.0000000000000000e+00  0.0000000000000000e+00 0.0000000000000000e+00 0.0000000000000000e+00  9.9999997749393499e-01 0.0000000000000000e+00 0.0000000000000000e+00  9.9999997749393499e-01 0.0000000000000000e+00 0.0000000000000000e+00  0.0000000000000000e+00 0.0000000000000000e+00 0.0000000000000000e+00  0.0000000000000000e+00 0.0000000000000000e+00 0.0000000000000000e+00  0.0000000000000000e+00 0.0000000000000000e+00 0.0000000000000000e+00  0.0000000000000000e+00 0.0000000000000000e+00 0.0000000000000000e+00  0.0000000000000000e+00 0.0000000000000000e+00 0.0000000000000000e+00  0.0000000000000000e+00 0.0000000000000000e+00 0.0000000000000000e+00  0.0000000000000000e+00 0.0000000000000000e+00 0.0000000000000000e+00  0.0000000000000000e+00 0.0000000000000000e+00 0.0000000000000000e+00  0.0000000000000000e+00 0.0000000000000000e+00 0.0000000000000000e+00  0.0000000000000000e+00 0.0000000000000000e+00 0.0000000000000000e+00  0.0000000000000000e+00 0.0000000000000000e+00 0.0000000000000000e+00  0.0000000000000000e+00 0.0000000000000000e+00 0.0000000000000000e+00  0.0000000000000000e+00 0.0000000000000000e+00 0.0000000000000000e+00  0.0000000000000000e+00 0.0000000000000000e+00 0.0000000000000000e+00  0.0000000000000000e+00 0.0000000000000000e+00 0.0000000000000000e+00  0.0000000000000000e+00 0.0000000000000000e+00 0.0000000000000000e+00  0.0000000000000000e+00 0.0000000000000000e+00 0.0000000000000000e+00  0.0000000000000000e+00 0.0000000000000000e+00 0.0000000000000000e+00  0.0000000000000000e+00 0.0000000000000000e+00 0.0000000000000000e+00  0.0000000000000000e+00 0.0000000000000000e+00 0.0000000000000000e+00  0.0000000000000000e+00 0.0000000000000000e+00 0.0000000000000000e+00  0.0000000000000000e+00 0.0000000000000000e+00 0.0000000000000000e+00  0.0000000000000000e+00 0.0000000000000000e+00 0.0000000000000000e+00  2.5914214417496317e-01 1.9353489330369545e-04 0.0000000000000000e+00  2.7656136991471042e-01 1.8440120835316537e-04 0.0000000000000000e+00  2.7762500865401707e-01 -1.1585519578526996e-05 0.0000000000000000e+00  2.7768314012085160e-01 3.3526134758652202e-06 0.0000000000000000e+00  2.7762707799425562e-01 -2.6791125270777175e-06 0.0000000000000000e+00  2.7718212665094211e-01 2.0393139199927218e-04 0.0000000000000000e+00  2.5989172485566725e-01 -4.3595034354451418e-04 0.0000000000000000e+00  0.0000000000000000e+00 0.0000000000000000e+00 0.0000000000000000e+00  0.0000000000000000e+00 0.0000000000000000e+00 0.0000000000000000e+00  0.0000000000000000e+00 0.0000000000000000e+00 0.0000000000000000e+00  0.0000000000000000e+00 0.0000000000000000e+00 0.0000000000000000e+00  0.0000000000000000e+00 0.0000000000000000e+00 0.0000000000000000e+00  0.0000000000000000e+00 0.0000000000000000e+00 0.0000000000000000e+00  0.0000000000000000e+00 0.0000000000000000e+00 0.0000000000000000e+00  0.0000000000000000e+00 0.0000000000000000e+00 0.0000000000000000e+00  0.0000000000000000e+00 0.0000000000000000e+00 0.0000000000000000e+00  0.0000000000000000e+00 0.0000000000000000e+00 0.0000000000000000e+00  0.0000000000000000e+00 0.0000000000000000e+00 0.0000000000000000e+00  0.0000000000000000e+00 0.0000000000000000e+00 0.0000000000000000e+00  0.0000000000000000e+00 0.0000000000000000e+00 0.0000000000000000e+00  0.0000000000000000e+00 0.0000000000000000e+00 0.0000000000000000e+00  0.0000000000000000e+00 0.0000000000000000e+00 0.0000000000000000e+00  0.0000000000000000e+00 0.0000000000000000e+00 0.0000000000000000e+00  0.0000000000000000e+00 0.0000000000000000e+00 0.0000000000000000e+00  0.0000000000000000e+00 0.0000000000000000e+00 0.0000000000000000e+00  0.0000000000000000e+00 0.0000000000000000e+00 0.0000000000000000e+00  0.0000000000000000e+00 0.0000000000000000e+00 0.0000000000000000e+00  0.0000000000000000e+00 0.0000000000000000e+00 0.0000000000000000e+00  0.0000000000000000e+00 0.0000000000000000e+00 0.0000000000000000e+00  0.0000000000000000e+00 0.0000000000000000e+00 0.0000000000000000e+00  2.5472566000786162e-01 -9.1247442847950278e-04 0.0000000000000000e+00  2.7484910884793740e-01 -9.5768248708601449e-04 0.0000000000000000e+00  2.8259660234791523e-01 -1.1339616990023076e-03 0.0000000000000000e+00  2.8640421615926059e-01 7.4515409063929375e-04 0.0000000000000000e+00  2.8329150777619438e-01 5.5300369284039209e-04 0.0000000000000000e+00  2.7552345801824868e-01 9.6584532568185183e-04 0.0000000000000000e+00  2.5430942903597220e-01 7.7849729445867528e-04 0.0000000000000000e+00  9.9999997749393499e-01 0.0000000000000000e+00 0.0000000000000000e+00  9.9999997749393499e-01 0.0000000000000000e+00 0.0000000000000000e+00  9.9999997749393499e-01 0.0000000000000000e+00 0.0000000000000000e+00  9.9999997749393499e-01 0.0000000000000000e+00 0.0000000000000000e+00  9.9999997749393499e-01 0.0000000000000000e+00 0.0000000000000000e+00  9.9999997749393499e-01 0.0000000000000000e+00 0.0000000000000000e+00  9.9999997749393499e-01 0.0000000000000000e+00 0.0000000000000000e+00  9.9999997749393499e-01 0.0000000000000000e+00 0.0000000000000000e+00  9.9999997749393499e-01 0.0000000000000000e+00 0.0000000000000000e+00  9.9999997749393499e-01 0.0000000000000000e+00 0.0000000000000000e+00  9.9999997749393499e-01 0.0000000000000000e+00 0.0000000000000000e+00  9.9999997749393499e-01 0.0000000000000000e+00 0.0000000000000000e+00  9.9999997749393499e-01 0.0000000000000000e+00 0.0000000000000000e+00  9.9999997749393499e-01 0.0000000000000000e+00 0.0000000000000000e+00  9.9999997749393499e-01 0.0000000000000000e+00 0.0000000000000000e+00  9.9999997749393499e-01 0.0000000000000000e+00 0.0000000000000000e+00  9.9999997749393499e-01 0.0000000000000000e+00 0.0000000000000000e+00  9.9999997749393499e-01 0.0000000000000000e+00 0.0000000000000000e+00  9.9999997749393499e-01 0.0000000000000000e+00 0.0000000000000000e+00  9.9999997749393499e-01 0.0000000000000000e+00 0.0000000000000000e+00  9.9999997749393499e-01 0.0000000000000000e+00 0.0000000000000000e+00  9.9999997749393499e-01 0.0000000000000000e+00 0.0000000000000000e+00  9.9999997749393499e-01 0.0000000000000000e+00 0.0000000000000000e+00  9.9999997749393499e-01 0.0000000000000000e+00 0.0000000000000000e+00  9.9999997749393499e-01 0.0000000000000000e+00 0.0000000000000000e+00  9.9999997749393499e-01 0.0000000000000000e+00 0.0000000000000000e+00  9.9999997749393499e-01 0.0000000000000000e+00 0.0000000000000000e+00  9.9999997749393499e-01 0.0000000000000000e+00 0.0000000000000000e+00  9.9999997749393499e-01 0.0000000000000000e+00 0.0000000000000000e+00  9.9999997749393499e-01 0.0000000000000000e+00 0.0000000000000000e+00  9.9999997749393499e-01 0.0000000000000000e+00 0.0000000000000000e+00  9.9999997749393499e-01 0.0000000000000000e+00 0.0000000000000000e+00  9.9999997749393499e-01 0.0000000000000000e+00 0.0000000000000000e+00  9.9999997749393499e-01 0.0000000000000000e+00 0.0000000000000000e+00  9.9999997749393499e-01 0.0000000000000000e+00 0.0000000000000000e+00  9.9999997749393499e-01 0.0000000000000000e+00 0.0000000000000000e+00  9.9999997749393499e-01 0.0000000000000000e+00 0.0000000000000000e+00  9.9999997749393499e-01 0.0000000000000000e+00 0.0000000000000000e+00  9.9999997749393499e-01 0.0000000000000000e+00 0.0000000000000000e+00  9.9999997749393499e-01 0.0000000000000000e+00 0.0000000000000000e+00  9.9999997749393499e-01 0.0000000000000000e+00 0.0000000000000000e+00  9.9999997749393499e-01 0.0000000000000000e+00 0.0000000000000000e+00  9.9999997749393499e-01 0.0000000000000000e+00 0.0000000000000000e+00  9.9999997749393499e-01 0.0000000000000000e+00 0.0000000000000000e+00  9.9999997749393499e-01 0.0000000000000000e+00 0.0000000000000000e+00  9.9999997749393499e-01 0.0000000000000000e+00 0.0000000000000000e+00  9.9999997749393499e-01 0.0000000000000000e+00 0.0000000000000000e+00  9.9999997749393499e-01 0.0000000000000000e+00 0.0000000000000000e+00  9.9999997749393499e-01 0.0000000000000000e+00 0.0000000000000000e+00  9.9999997749393499e-01 0.0000000000000000e+00 0.0000000000000000e+00  9.9999997749393499e-01 0.0000000000000000e+00 0.0000000000000000e+00  9.9999997749393499e-01 0.0000000000000000e+00 0.0000000000000000e+00  9.9999997749393499e-01 0.0000000000000000e+00 0.0000000000000000e+00  9.9999997749393499e-01 0.0000000000000000e+00 0.0000000000000000e+00  9.9999997749393499e-01 0.0000000000000000e+00 0.0000000000000000e+00  9.9999997749393499e-01 0.0000000000000000e+00 0.0000000000000000e+00  9.9999997749393499e-01 0.0000000000000000e+00 0.0000000000000000e+00  9.9999997749393499e-01 0.0000000000000000e+00 0.0000000000000000e+00  9.9999997749393499e-01 0.0000000000000000e+00 0.0000000000000000e+00  9.9999997749393499e-01 0.0000000000000000e+00 0.0000000000000000e+00  9.9999997749393499e-01 0.0000000000000000e+00 0.0000000000000000e+00  9.9999997749393499e-01 0.0000000000000000e+00 0.0000000000000000e+00  5.4959157718794016e-01 3.3106319305053401e-02 0.0000000000000000e+00  2.9846028984934903e-01 -1.3026612091676201e-02 0.0000000000000000e+00  3.0395022371806973e-01 6.1187680000219680e-02 0.0000000000000000e+00  2.5317499323247195e-01 -9.1182071820981009e-02 0.0000000000000000e+00  4.6397425652386121e-01 2.2107940054300446e-01 0.0000000000000000e+00  5.6629243404446494e-01 -1.7744799603721659e-01 0.0000000000000000e+00  3.8098528771335194e-01 -2.2178954627924841e-02 0.0000000000000000e+00  1.5476889076515152e-01 1.4187495747739440e-01 0.0000000000000000e+00  8.4688793384259842e-01 2.0175267466530075e-02 0.0000000000000000e+00  1.9608701448699042e-02 2.6653410973939240e-01 0.0000000000000000e+00  7.2527515693470712e-02 -1.3723012405371751e-01 0.0000000000000000e+00  2.7615456330782606e-01 -3.1410151314005125e-01 0.0000000000000000e+00  2.8760427740327654e-01 -1.6357738164794085e-04 0.0000000000000000e+00  -1.0870983822301862e-01 2.5750492049657830e-01 0.0000000000000000e+00  -3.1199168499931496e-01 -3.3900366158374678e-01 0.0000000000000000e+00  -5.1510902007501780e-01 -1.7527951149412191e-01 0.0000000000000000e+00  -3.7178080061098262e-01 4.0066824546099930e-02 0.0000000000000000e+00  3.7835523103171498e-01 1.6464618330835074e-01 0.0000000000000000e+00  -4.6865792259235833e-01 3.4536767153492315e-01 0.0000000000000000e+00  8.0306782575817903e-01 1.5241304537384828e-01 0.0000000000000000e+00  4.0060823269980633e-01 -1.8684474834157819e-01 0.0000000000000000e+00  8.3238478664428461e-01 -1.2428606216678827e-01 0.0000000000000000e+00  2.7802758338346184e-01 2.4046729127151129e-04 0.0000000000000000e+00  5.3962216850517575e-01 -4.5124826161094728e-02 0.0000000000000000e+00  2.2216263293916347e-01 -3.5159399864499408e-01 0.0000000000000000e+00  -5.3642397167008908e-02 -4.6381745286249093e-01 0.0000000000000000e+00  2.8455001001119234e-01 6.5207389287109344e-03 0.0000000000000000e+00  3.4104113242688583e-01 3.5504043425279774e-01 0.0000000000000000e+00  5.9443166921858269e-02 4.5894754927239201e-01 0.0000000000000000e+00  -4.2643922664152667e-01 -3.7407820592342106e-01 0.0000000000000000e+00  9.4033621025627501e-01 5.6483402481180396e-02 0.0000000000000000e+00  9.5919269052157219e-01 -1.4985537442054733e-02 0.0000000000000000e+00  8.8431326001565547e-01 1.3590231741095044e-01 0.0000000000000000e+00  6.6780175843443024e-01 9.3759861730898827e-02 0.0000000000000000e+00  8.9072209790577117e-01 -1.2023179269750998e-01 0.0000000000000000e+00  7.7086051064448335e-01 -1.2394593628720522e-01 0.0000000000000000e+00  3.0073577415400682e-01 -5.7657948238086773e-02 0.0000000000000000e+00  2.8988625700619458e-01 5.0216723322912396e-02 0.0000000000000000e+00  5.5149066785382306e-01 2.1117823398478791e-01 0.0000000000000000e+00  2.7785734405388174e-01 -1.4108133009307895e-03 0.0000000000000000e+00  -1.7294307344652074e-01 2.2359487125455166e-01 0.0000000000000000e+00  2.7751511865802198e-01 -2.2408845845993007e-04 0.0000000000000000e+00  5.8183681514457031e-01 -2.2981232831457316e-01 0.0000000000000000e+00  2.6321012985283887e-01 -1.7771382193723338e-02 0.0000000000000000e+00  -3.4456306534117953e-01 4.9942136102903822e-01 0.0000000000000000e+00  2.7603698512479358e-01 2.5144112026026441e-03 0.0000000000000000e+00  2.7922465644273797e-01 -3.8135102496798918e-03 0.0000000000000000e+00  1.5690026144237776e-01 2.0106881168952878e-01 0.0000000000000000e+00  1.8204670747531884e-01 -1.9098941142019651e-01 0.0000000000000000e+00  9.4624417038737907e-01 6.6280425218059352e-02 0.0000000000000000e+00  9.6086227491877418e-01 -5.1176835987160961e-02 0.0000000000000000e+00  -2.2253832894323852e-01 -5.8825252139995110e-01 0.0000000000000000e+00  4.8142868140198330e-01 -3.9749300259094711e-01 0.0000000000000000e+00  4.6227489684171223e-02 -1.3352695660294223e-01 0.0000000000000000e+00  -3.2702881956320284e-01 -4.3933057744446929e-01 0.0000000000000000e+00  2.7331588904205040e-01 -1.1173865861744878e-02 0.0000000000000000e+00  -1.2628082311664543e-01 5.7882676031957325e-01 0.0000000000000000e+00  6.2848691998403894e-01 -1.7537782061216173e-02 0.0000000000000000e+00  -1.8419363229436206e-01 2.9544354693441977e-01 0.0000000000000000e+00  3.1852495821185622e-01 1.0701977827022214e-02 0.0000000000000000e+00  2.7585003365495231e-01 3.6125352657761991e-04 0.0000000000000000e+00  2.6397669078368541e-01 1.7503301040255801e-02 0.0000000000000000e+00  2.8954280366763463e-01 -9.0741528890072145e-04 0.0000000000000000e+00  2.3048462346176998e-01 3.9600591119082297e-02 0.0000000000000000e+00  6.9739109129504318e-01 4.0479140735791980e-02 0.0000000000000000e+00  3.1182362011356740e-01 -4.7980600454904168e-02 0.0000000000000000e+00  -8.0643707436574244e-02 -2.2747003415875924e-01 0.0000000000000000e+00  1.6971884395618320e-01 -5.5615217449614640e-01 0.0000000000000000e+00  2.6863140883326370e-01 1.2165797141281744e-02 0.0000000000000000e+00  9.8231219314521590e-01 1.8727959223679085e-02 0.0000000000000000e+00  2.9657939876105621e-01 5.4641241252188133e-01 0.0000000000000000e+00  5.0538503999238371e-01 3.9207425247043259e-01 0.0000000000000000e+00  9.5187711171883727e-01 6.7819425582980930e-02 0.0000000000000000e+00  6.5384037810678819e-01 8.8899433940307040e-02 0.0000000000000000e+00  2.7774938376495323e-01 8.5703968270307753e-05 0.0000000000000000e+00  9.4591517593915997e-01 -6.9302570335954924e-02 0.0000000000000000e+00  -8.4796160160873893e-02 -2.3854087634834950e-01 0.0000000000000000e+00  2.7511891133075916e-01 6.5529020140633041e-04 0.0000000000000000e+00  9.8631768910222184e-01 -1.6422974154530211e-02 0.0000000000000000e+00  3.7486538735359243e-01 1.1290520383094952e-02 0.0000000000000000e+00  2.7951553374992960e-01 -1.5515849920326869e-06 0.0000000000000000e+00  4.4681041256257414e-01 7.0670822744131487e-02 0.0000000000000000e+00  2.6892955079652753e-01 3.9569131035880178e-03 0.0000000000000000e+00  7.1066880968916091e-01 -4.5917090767026034e-02 0.0000000000000000e+00  2.8946351103043749e-01 2.0891986879493594e-02 0.0000000000000000e+00  -1.7518721444996660e-01 2.2921479656384131e-01 0.0000000000000000e+00  3.2178633695667469e-01 6.2178112086131755e-02 0.0000000000000000e+00  7.9160092278408856e-01 2.8401039114808974e-02 0.0000000000000000e+00  -6.2299653899870348e-02 -6.4794079980824348e-01 0.0000000000000000e+00  2.7355127240860300e-01 -3.6264859384763310e-04 0.0000000000000000e+00  -6.5661635424616871e-01 2.5308714834110219e-01 0.0000000000000000e+00  1.8473102657577914e-01 -3.9198041659175391e-02 0.0000000000000000e+00  6.8762249919182639e-01 2.7677418878419680e-01 0.0000000000000000e+00  -2.7536167884650153e-01 5.5087369071016046e-01 0.0000000000000000e+00  -2.8385056169979739e-01 4.1396695962252256e-01 0.0000000000000000e+00  4.1103042056567685e-01 -1.0393983529879099e-01 0.0000000000000000e+00  2.9515078701959746e-01 3.3441736592123216e-03 0.0000000000000000e+00  7.1450430396215114e-01 -1.7596225685407199e-01 0.0000000000000000e+00  4.9336466148576336e-01 -1.3661941081940673e-01 0.0000000000000000e+00  3.4860693559635791e-01 5.2212585101517828e-02 0.0000000000000000e+00  2.7344980757788712e-01 1.1347122952653228e-01 0.0000000000000000e+00  7.3379346227063724e-01 1.2996173253245874e-01 0.0000000000000000e+00  1.9290612281273722e-01 -1.5056655962698648e-01 0.0000000000000000e+00  2.6937594237488527e-01 -2.2735515782479577e-03 0.0000000000000000e+00  2.7244212399963552e-01 -6.7912526786560672e-05 0.0000000000000000e+00  5.6794746706629262e-02 6.4578157352917953e-01 0.0000000000000000e+00  1.9817256207122236e-01 -7.1301543668222639e-02 0.0000000000000000e+00  -1.5856163028893644e-01 -3.3200393719207283e-01 0.0000000000000000e+00  7.8331899419866746e-01 -8.5757976526515581e-02 0.0000000000000000e+00  2.6154192307290569e-01 -5.1750160485724353e-03 0.0000000000000000e+00  1.9075268750014621e-01 7.2167484329379680e-02 0.0000000000000000e+00  9.5676794689455691e-01 -5.6036733595297934e-02 0.0000000000000000e+00  4.0869528760179313e-01 2.9483080625545088e-01 0.0000000000000000e+00  2.7805466269966100e-01 -3.4593621909481063e-04 0.0000000000000000e+00  2.2964228445739671e-01 -3.0661956644305013e-02 0.0000000000000000e+00  9.5976871021793175e-01 5.2241916786018090e-02 0.0000000000000000e+00  9.7562219159049279e-01 3.6422427347910818e-02 0.0000000000000000e+00  5.8563680891289188e-02 2.1705094957494081e-01 0.0000000000000000e+00  3.4237398219354459e-01 1.2851859280431638e-01 0.0000000000000000e+00  5.4348623276505115e-01 -2.4605037476765515e-01 0.0000000000000000e+00  2.8168934297555448e-01 -1.2773671515779815e-02 0.0000000000000000e+00  9.6817390827105787e-01 -4.5160256457668781e-02 0.0000000000000000e+00  3.0511185956773013e-01 -1.5293980232212316e-02 0.0000000000000000e+00  2.4881143240308354e-01 -2.2516989213704059e-02 0.0000000000000000e+00  4.6025270215867314e-01 -3.5593872487990515e-02 0.0000000000000000e+00  -1.9437789563252558e-01 -3.0551619146937570e-01 0.0000000000000000e+00  -2.9823113294024095e-01 -4.8636960482068370e-01 0.0000000000000000e+00  1.1256795482324219e-01 3.1067757384378857e-02 0.0000000000000000e+00  3.2321358960952373e-01 -9.6743720870194921e-02 0.0000000000000000e+00  2.8524347884467821e-01 7.4248027523470049e-04 0.0000000000000000e+00  -5.8280019507222347e-01 -1.1332076910259384e-01 0.0000000000000000e+00  2.8020185196560649e-01 -4.0534783074389867e-03 0.0000000000000000e+00  2.8680804147957828e-01 -3.2119087476777886e-02 0.0000000000000000e+00  9.8886730034623727e-01 -3.5008752382978864e-04 0.0000000000000000e+00  1.3949341063111942e-01 1.1699717027435758e-01 0.0000000000000000e+00  8.8250514417644510e-01 -5.5887029440443846e-02 0.0000000000000000e+00  2.8886812150259905e-01 1.4913962324396301e-02 0.0000000000000000e+00  9.0523736020208556e-01 3.6952634832762322e-02 0.0000000000000000e+00  5.4216217840486115e-02 -4.8337150830708921e-02 0.0000000000000000e+00  2.3927166713265643e-01 2.3340713031917593e-02 0.0000000000000000e+00  3.3687066978818969e-01 -5.4725148740877361e-01 0.0000000000000000e+00  6.3394010693613756e-01 -4.0549508775167609e-01 0.0000000000000000e+00  9.1730143822503540e-01 -6.3737222313392017e-02 0.0000000000000000e+00  2.6876260401772295e-01 2.0287343413750594e-01 0.0000000000000000e+00  2.6966439097028377e-01 -1.0902283814907955e-03 0.0000000000000000e+00  1.8053969447341436e-01 -2.1616239413523308e-01 0.0000000000000000e+00  -7.3215344349833467e-01 4.0434669144172909e-02 0.0000000000000000e+00  2.7976369898599346e-01 -2.0104302659768331e-01 0.0000000000000000e+00  -4.8135438066322100e-01 -1.6749724805704103e-01 0.0000000000000000e+00  3.3258874353347900e-01 -1.3358687684704305e-02 0.0000000000000000e+00  9.5116237110753976e-01 4.9253284525332182e-02 0.0000000000000000e+00  8.7219951777826177e-01 9.0551566644875528e-02 0.0000000000000000e+00  5.7087568526028221e-01 3.9748150886761963e-01 0.0000000000000000e+00  6.6015014296990593e-01 2.5825442999230697e-01 0.0000000000000000e+00  9.8884053862715882e-01 -2.02575443560942