<?xml version="1.0"?>
<VTKFile type="UnstructuredGrid"  version="0.1"  >
<UnstructuredGrid>
<Piece  NumberOfPoints="406" NumberOfCells="722">
<Points>
<DataArray  type="Float64"  NumberOfComponents="3"  format="ascii">-6 -2 0  -6 2 0  6 2 0  6 -2 0  -2.8 0 0  -1.2 0 0  -5.500000000001853 -2 0  -5.000000000003705 -2 0  -4.500000000005556 -2 0  -4.000000000007409 -2 0  -3.50000000000926 -2 0  -3.000000000011112 -2 0  -2.500000000012963 -2 0  -2.000000000014814 -2 0  -1.500000000016665 -2 0  -1.000000000018516 -2 0  -0.5000000000203677 -2 0  -2.204547655537681e-11 -2 0  0.4999999999796305 -2 0  0.9999999999814779 -2 0  1.499999999983327 -2 0  1.999999999985175 -2 0  2.499999999987029 -2 0  2.999999999988882 -2 0  3.499999999990735 -2 0  3.999999999992589 -2 0  4.49999999999444 -2 0  4.999999999996293 -2 0  5.499999999998147 -2 0  6 -1.500000000001387 0  6 -1.000000000002774 0  6 -0.5000000000041616 0  6 -5.505595979116151e-12 0  6 0.4999999999958384 0  6 0.9999999999972258 0  6 1.499999999998613 0  5.500000000001853 2 0  5.000000000003705 2 0  4.500000000005556 2 0  4.000000000007409 2 0  3.50000000000926 2 0  3.000000000011112 2 0  2.500000000012963 2 0  2.000000000014814 2 0  1.500000000016665 2 0  1.000000000018516 2 0  0.5000000000203677 2 0  2.204547655537681e-11 2 0  -0.4999999999796305 2 0  -0.9999999999814779 2 0  -1.499999999983327 2 0  -1.999999999985175 2 0  -2.499999999987029 2 0  -2.999999999988882 2 0  -3.499999999990735 2 0  -3.999999999992589 2 0  -4.49999999999444 2 0  -4.999999999996293 2 0  -5.499999999998147 2 0  -6 1.500000000001387 0  -6 1.000000000002774 0  -6 0.5000000000041616 0  -6 5.505595979116151e-12 0  -6 -0.4999999999958384 0  -6 -0.9999999999972258 0  -6 -1.499999999998613 0  -2.776753453941174 -0.1914525314286965 0  -2.708364820523325 -0.3717785376335722 0  -2.598808598538216 -0.5304981265911284 0  -2.454451797386757 -0.65838709271366 0  -2.283683909636528 -0.748012994147384 0  -2.096429344207466 -0.7941670992780535 0  -1.903570655798842 -0.7941670992788195 0  -1.716316090368095 -0.7480129941491368 0  -1.545548202616307 -0.6583870927157747 0  -1.401191401463757 -0.530498126593356 0  -1.291635179477527 -0.371778537635196 0  -1.223246546059047 -0.1914525314295925 0  -1.223246546058803 0.1914525314286035 0  -1.291635179476594 0.3717785376334188 0  -1.401191401461634 0.5304981265909601 0  -1.545548202612898 0.6583870927134221 0  -1.716316090363093 0.7480129941472402 0  -1.903570655792394 0.7941670992780367 0  -2.096429344201276 0.7941670992788055 0  -2.283683909631911 0.7480129941491347 0  -2.454451797383697 0.6583870927157729 0  -2.598808598536385 0.530498126593196 0  -2.70836482052258 0.3717785376349917 0  -2.776753453940975 0.1914525314295042 0  0.4588466633941945 0.2704149791022056 0  -4.424312812173863 0.2760319703992994 0  -3.803977598762586 -0.6841584599595646 0  -0.1330968762779425 -0.6798763971615133 0  2.451109587541276 3.169800318630399e-13 0  -3.563610936250569 0.5929994091167295 0  4.204753319582647 0.2820669554523581 0  -0.4390897559348154 0.6178095532273566 0  -3.041446812595122 1.175550440315544 0  -0.9622132806516797 1.132103015222783 0  1.069493318942931 -0.773608156980569 0  -4.924330687080279 -0.7127064269610045 0  -3.024693497948964 -1.195179289656404 0  -0.9648749555625579 -1.256854520022574 0  -3.443624282349383 -0.2044158249759613 0  -0.5611500783757608 -0.1747080110423833 0  1.60270880116926 0.7487034276124258 0  3.488352576142236 -0.8228939860777884 0  4.816375011670135 -0.8163750116689444 0  3.243628045085357 0.8578172796997985 0  -4.228632884234073 1.228069101636678 0  -2.365220384435482 -1.356128547810356 0  -1.637465979486354 1.3571687267915 0  -1.642380978561139 -1.359365080147485 0  -2.362988915989869 1.356737096243695 0  -5.134120367293631 0.8356299802910161 0  2.077496878467794 -0.9514080034522553 0  4.960859291178299 0.9608592911785537 0  0.3293120056474302 1.148965409695154 0  -5.157560560414062 0.09447106214747865 0  -3.14779387667392 -0.6330563038825547 0  -3.148134455585257 0.4354299640428653 0  -0.8464439673630421 0.4159277415926296 0  -0.9918125625721008 -0.7191748422889824 0  -4.355349213295776 -1.234510499778242 0  1.582074659164868 -0.06850205959954866 0  2.400584045214166 1.204278622181321 0  5.102831660739063 0.03453404176596848 0  4.083259768981113 1.154272958349666 0  -3.992394834362243 -0.1621022234411988 0  0.4290302718942113 -1.225465289645401 0  -3.681487986394671 -1.310544246656267 0  -3.640289698916164 1.187023654838123 0  0.468851680921228 -0.447055967952278 0  3.315209904217932 0.05667935655546536 0  -2.541160649745046 -1.046980928586996 0  -1.45196684542695 1.044189935346116 0  -2.000844595891861 -1.207983108473125 0  -1.453092202970521 -1.061139264918894 0  -2.000050543938391 1.207806685704176 0  -2.548033154566413 1.04418993534851 0  4.13054585796652 -1.232871249381608 0  -0.3301617095463629 1.221692405319566 0  -0.2880491989587189 -1.359626628407983 0  -0.0758941643813178 0.132275811829787 0  2.826389221580753 -1.233168480096227 0  -2.922070412327736 0.7575752117792038 0  1.003070890178416 1.271347915034201 0  -5.319521816151902 -1.310543894393663 0  -1.070407062963812 0.7877698545098388 0  -4.562499863038985 -0.2302396981426722 0  -3.164226661545047 0.07179577787350272 0  -0.9091377812900333 0.132454654016971 0  4.116029045943655 -0.4851826871817362 0  5.316659189209927 -1.316659189208741 0  -0.9498828454673396 -0.4149758979014553 0  -4.037769805263969 0.6896174350675625 0  1.431664772855882 -1.327784137638992 0  -3.646693623568034 0.1600006358878044 0  -2.878371345483476 -0.7910345833001061 0  1.062603041385242 0.2894765870627741 0  -0.547955103783681 0.1635272504420374 0  -4.804809838419659 1.41016301576038 0  -3.042895319571192 -0.3694931303482478 0  -4.59252578392403 0.792267765362792 0  2.823271260730033 -0.5472430318427347 0  -4.28575390662405 -0.7521491832384866 0  -0.5524005545121191 -0.9037367558558163 0  1.815219025072439 1.388812135783969 0  -1.288398729718543 -0.8178399475601057 0  -5.424388493366639 1.35375165044146 0  -2.256991952837567 -1.049538527273222 0  -1.739586738723494 -1.052327527873255 0  -1.738827359988536 1.050180627239116 0  -2.257795730428802 1.049701225145305 0  -0.62222340523776 -0.5483611729237363 0  2.065188519029698 0.5424877383589943 0  0.1055865106318892 0.7347782870471022 0  1.013082573993895 -0.2061877611231605 0  -5.428323520618333 -0.4386412085227075 0  5.374041502384443 -0.5304401760993408 0  3.435185060219232 -1.377658617395091 0  -3.302377238490527 0.8841390072780534 0  -0.9902123298072768 -0.124175295282554 0  0.7186958547669859 0.8724503317343631 0  2.941237214953417 1.390391532351976 0  4.708037787864423 -1.340276032051348 0  5.395029680982659 1.395029680983341 0  3.591022587550188 1.348260650408605 0  2.759385971589342 0.4857447325740718 0  -0.6832705231418494 0.8879387563573758 0  5.437781298507145 0.5981501503262471 0  -2.698603003287285 1.617130043745112 0  -3.463358189947519 -1.013588318179017 0  1.710866040171871 -0.6978716337870808 0  3.642182982762737 0.4555704362064124 0  -2.699802128031161 -1.618310703146212 0  -1.3020054856637 1.619819977935582 0  -2.000000000004996 -1.566396763829867 0  -1.999999999994794 1.566396763830688 0  -1.247812462071684 -1.595232739507426 0  4.59429106759859 1.420052135572917 0  0.9448382581152466 -1.440259145469251 0  -0.116376100998861 -0.2606209011258676 0  -4.774521510507792 0.4245390872783272 0  -2.983910172370106 -0.1208000607277856 0  -3.353983741142061 1.576062863985777 0  -5.473352579109997 0.4917619255280954 0  -4.828650470275986 -1.493148538517745 0  4.639973657165532 -0.2833178611094909 0  -2.660279445404468 0.7699932347178977 0  -1.335045190775955 0.7744876666923373 0  -3.395669172689978 0.2584951122361346 0  2.279110606119369 -1.465899541383697 0  4.734317729212562 0.4520963557364723 0  -0.6334913028224612 1.584213953723378 0  2.121854101359879 -0.4289611127787379 0  -3.474459720833238 -0.4977581316675216 0  -1.066539898844178 0.3411379476537602 0  -3.361849707555382 -1.611428512420182 0  -4.099039818938317 0.3306400369415774 0  -2.935324777364672 0.354721898811665 0  -3.973578595052027 1.482940358734671 0  3.784450148635689 -0.0702780807301525 0  -1.191348122671212 -0.5614501189722798 0  -2.838672605956353 -0.5493179047027598 0  -1.184983441257359 0.5617520886612424 0  -2.811184099847449 0.5574240755049175 0  0.2702752249355158 -0.8003643570420809 0  -0.6945947797857237 -1.593893965175195 0  0.001175881878679056 1.504521009023778 0  0.6072931735145096 1.501814722697789 0  -3.991896293645949 -1.047264188412552 0  -3.734097395159253 -0.3261671578666079 0  -5.539652387691843 -0.8857154182585802 0  -4.395061924111849 1.563293728588296 0  0.2258327611651416 -0.08745142624872881 0  -3.774816634825771 0.8676973328379478 0  2.208484493569073 1.6256686312487 0  0.1309939514660535 -1.566169703482512 0  -5.551414360955331 0.9459842275970113 0  -4.04734138658365 -1.51163984963472 0  -4.947145019546805 -0.3299925153029702 0  4.320410447198621 0.6970857582435144 0  -4.707557346727139 -1.000565649857444 0  1.353711468973986 1.582551234446199 0  1.674156483558973 0.3266252271732694 0  -4.039105552973997 -0.4537604746027087 0  0.01051727619263377 -1.088858357362194 0  -0.2234942609176301 0.8619127912343982 0  -2.95903482691863 0.1219373374385197 0  -4.682467695920681 0.0804575682243254 0  5.535750224195656 -0.1525732643419722 0  -4.290083947414376 -0.0005258314026840717 0  1.136102562417988 0.7655312464039168 0  -2.816589394567214 0.9927597419785312 0  -2.645374456162409 -0.7645902451387543 0  4.18414576655837 1.624276131878667 0  0.7127337088822223 -0.9006358935856398 0  1.972418102153911 0.9727040774616764 0  -2.42199174813501 0.8591219219254587 0  -2.418604734200992 -0.8552987735117754 0  -5.573597213364169 -0.03612430678117123 0  2.024792870869397 0.05574071630590883 0  -1.578875191508968 0.861424470724936 0  -1.54706008231699 -0.8630049102346303 0  3.848662181064435 -1.569601980075533 0  -2.000000000003871 -0.9746445732264465 0  -1.99999999
[...]
<PointData  Vectors="f_22"> 
<DataArray  type="Float64"  Name="f_22"  NumberOfComponents="3" format="ascii">0.0000000000000000e+00 0.0000000000000000e+00 0.0000000000000000e+00  0.0000000000000000e+00 0.0000000000000000e+00 0.0000000000000000e+00  0.0000000000000000e+00 0.0000000000000000e+00 0.0000000000000000e+00  0.0000000000000000e+00 0.0000000000000000e+00 0.0000000000000000e+00  9.9999995691772814e-01 0.0000000000000000e+00 0.0000000000000000e+00  9.9999995691772814e-01 0.0000000000000000e+00 0.0000000000000000e+00  0.0000000000000000e+00 0.0000000000000000e+00 0.0000000000000000e+00  0.0000000000000000e+00 0.0000000000000000e+00 0.0000000000000000e+00  0.0000000000000000e+00 0.0000000000000000e+00 0.0000000000000000e+00  0.0000000000000000e+00 0.0000000000000000e+00 0.0000000000000000e+00  0.0000000000000000e+00 0.0000000000000000e+00 0.0000000000000000e+00  0.0000000000000000e+00 0.0000000000000000e+00 0.0000000000000000e+00  0.0000000000000000e+00 0.0000000000000000e+00 0.0000000000000000e+00  0.0000000000000000e+00 0.0000000000000000e+00 0.0000000000000000e+00  0.0000000000000000e+00 0.0000000000000000e+00 0.0000000000000000e+00  0.0000000000000000e+00 0.0000000000000000e+00 0.0000000000000000e+00  0.0000000000000000e+00 0.0000000000000000e+00 0.0000000000000000e+00  0.0000000000000000e+00 0.0000000000000000e+00 0.0000000000000000e+00  0.0000000000000000e+00 0.0000000000000000e+00 0.0000000000000000e+00  0.0000000000000000e+00 0.0000000000000000e+00 0.0000000000000000e+00  0.0000000000000000e+00 0.0000000000000000e+00 0.0000000000000000e+00  0.0000000000000000e+00 0.0000000000000000e+00 0.0000000000000000e+00  0.0000000000000000e+00 0.0000000000000000e+00 0.0000000000000000e+00  0.0000000000000000e+00 0.0000000000000000e+00 0.0000000000000000e+00  0.0000000000000000e+00 0.0000000000000000e+00 0.0000000000000000e+00  0.0000000000000000e+00 0.0000000000000000e+00 0.0000000000000000e+00  0.0000000000000000e+00 0.0000000000000000e+00 0.0000000000000000e+00  0.0000000000000000e+00 0.0000000000000000e+00 0.0000000000000000e+00  0.0000000000000000e+00 0.0000000000000000e+00 0.0000000000000000e+00  3.7029415349609579e-01 -2.6119363826648757e-04 0.0000000000000000e+00  6.2198912702640674e-01 -5.9157622154545973e-04 0.0000000000000000e+00  7.6984417165401786e-01 -5.4866738538470437e-04 0.0000000000000000e+00  8.1904697927435222e-01 -2.4594438788011139e-05 0.0000000000000000e+00  7.6979007327146143e-01 5.1110008782000779e-04 0.0000000000000000e+00  6.2205884407380330e-01 6.0394600428313023e-04 0.0000000000000000e+00  3.7042459073447387e-01 2.5421084076537068e-04 0.0000000000000000e+00  0.0000000000000000e+00 0.0000000000000000e+00 0.0000000000000000e+00  0.0000000000000000e+00 0.0000000000000000e+00 0.0000000000000000e+00  0.0000000000000000e+00 0.0000000000000000e+00 0.0000000000000000e+00  0.0000000000000000e+00 0.0000000000000000e+00 0.0000000000000000e+00  0.0000000000000000e+00 0.0000000000000000e+00 0.0000000000000000e+00  0.0000000000000000e+00 0.0000000000000000e+00 0.0000000000000000e+00  0.0000000000000000e+00 0.0000000000000000e+00 0.0000000000000000e+00  0.0000000000000000e+00 0.0000000000000000e+00 0.0000000000000000e+00  0.0000000000000000e+00 0.0000000000000000e+00 0.0000000000000000e+00  0.0000000000000000e+00 0.0000000000000000e+00 0.0000000000000000e+00  0.0000000000000000e+00 0.0000000000000000e+00 0.0000000000000000e+00  0.0000000000000000e+00 0.0000000000000000e+00 0.0000000000000000e+00  0.0000000000000000e+00 0.0000000000000000e+00 0.0000000000000000e+00  0.0000000000000000e+00 0.0000000000000000e+00 0.0000000000000000e+00  0.0000000000000000e+00 0.0000000000000000e+00 0.0000000000000000e+00  0.0000000000000000e+00 0.0000000000000000e+00 0.0000000000000000e+00  0.0000000000000000e+00 0.0000000000000000e+00 0.0000000000000000e+00  0.0000000000000000e+00 0.0000000000000000e+00 0.0000000000000000e+00  0.0000000000000000e+00 0.0000000000000000e+00 0.0000000000000000e+00  0.0000000000000000e+00 0.0000000000000000e+00 0.0000000000000000e+00  0.0000000000000000e+00 0.0000000000000000e+00 0.0000000000000000e+00  0.0000000000000000e+00 0.0000000000000000e+00 0.0000000000000000e+00  0.0000000000000000e+00 0.0000000000000000e+00 0.0000000000000000e+00  3.6930129313870608e-01 -5.6594801413752344e-04 0.0000000000000000e+00  6.2151130665530219e-01 -9.7010296491989228e-04 0.0000000000000000e+00  7.7035127228854527e-01 -7.7731427530118569e-04 0.0000000000000000e+00  8.2043441244215154e-01 -6.3427263320273791e-06 0.0000000000000000e+00  7.7099652480544822e-01 8.9858607062255028e-04 0.0000000000000000e+00  6.2181247286564090e-01 1.0353638685441792e-03 0.0000000000000000e+00  3.6936858188424870e-01 5.9379099904463615e-04 0.0000000000000000e+00  9.9999995691772814e-01 0.0000000000000000e+00 0.0000000000000000e+00  9.9999995691772814e-01 0.0000000000000000e+00 0.0000000000000000e+00  9.9999995691772814e-01 0.0000000000000000e+00 0.0000000000000000e+00  9.9999995691772814e-01 0.0000000000000000e+00 0.0000000000000000e+00  9.9999995691772814e-01 0.0000000000000000e+00 0.0000000000000000e+00  9.9999995691772814e-01 0.0000000000000000e+00 0.0000000000000000e+00  9.9999995691772814e-01 0.0000000000000000e+00 0.0000000000000000e+00  9.9999995691772814e-01 0.0000000000000000e+00 0.0000000000000000e+00  9.9999995691772814e-01 0.0000000000000000e+00 0.0000000000000000e+00  9.9999995691772814e-01 0.0000000000000000e+00 0.0000000000000000e+00  9.9999995691772814e-01 0.0000000000000000e+00 0.0000000000000000e+00  9.9999995691772814e-01 0.0000000000000000e+00 0.0000000000000000e+00  9.9999995691772814e-01 0.0000000000000000e+00 0.0000000000000000e+00  9.9999995691772814e-01 0.0000000000000000e+00 0.0000000000000000e+00  9.9999995691772814e-01 0.0000000000000000e+00 0.0000000000000000e+00  9.9999995691772814e-01 0.0000000000000000e+00 0.0000000000000000e+00  9.9999995691772814e-01 0.0000000000000000e+00 0.0000000000000000e+00  9.9999995691772814e-01 0.0000000000000000e+00 0.0000000000000000e+00  9.9999995691772814e-01 0.0000000000000000e+00 0.0000000000000000e+00  9.9999995691772814e-01 0.0000000000000000e+00 0.0000000000000000e+00  9.9999995691772814e-01 0.0000000000000000e+00 0.0000000000000000e+00  9.9999995691772814e-01 0.0000000000000000e+00 0.0000000000000000e+00  9.9999995691772814e-01 0.0000000000000000e+00 0.0000000000000000e+00  9.9999995691772814e-01 0.0000000000000000e+00 0.0000000000000000e+00  8.8696120714829851e-01 1.7427749921341603e-02 0.0000000000000000e+00  8.1344044604639398e-01 -4.9654965155904590e-03 0.0000000000000000e+00  7.3569459742831544e-01 2.9606158714858138e-02 0.0000000000000000e+00  7.8018710918121925e-01 -4.7894302005480782e-02 0.0000000000000000e+00  8.3877119184206894e-01 1.8023154145325197e-05 0.0000000000000000e+00  7.7071223081013174e-01 -4.3307842222823745e-02 0.0000000000000000e+00  8.0673246144683397e-01 1.0959294493113980e-03 0.0000000000000000e+00  8.3399273970638899e-01 4.6528949213682114e-02 0.0000000000000000e+00  4.7715908064305201e-01 -8.6011941486051000e-02 0.0000000000000000e+00  4.6890179501008417e-01 8.1033492951811892e-02 0.0000000000000000e+00  7.0483983698248220e-01 -2.4851345721960252e-02 0.0000000000000000e+00  7.2037101490236111e-01 3.9049927852470895e-03 0.0000000000000000e+00  4.6354685334717383e-01 8.5581242264421681e-02 0.0000000000000000e+00  3.5603739895539288e-01 -7.1940490258897510e-02 0.0000000000000000e+00  8.6911042960649343e-01 2.3359366480873427e-02 0.0000000000000000e+00  9.7087191537751905e-01 -9.6416870876725926e-03 0.0000000000000000e+00  7.1186256194622788e-01 1.5963391583225992e-02 0.0000000000000000e+00  6.8505070978605664e-01 -3.5003859648690002e-03 0.0000000000000000e+00  6.8768347563410426e-01 -1.2785571303663076e-03 0.0000000000000000e+00  6.7273853796945926e-01 4.2427052394928329e-03 0.0000000000000000e+00  5.1216455058985655e-01 -1.0828682145841227e-02 0.0000000000000000e+00  2.3980955889047839e-01 9.3090785683219948e-02 0.0000000000000000e+00  1.9739006191962724e-01 1.9826495278098016e-02 0.0000000000000000e+00  1.9534435538794256e-01 -1.8829989289595877e-02 0.0000000000000000e+00  2.3893795922723701e-01 -9.2927659921850328e-02 0.0000000000000000e+00  6.8152924952653438e-01 -2.6522067201881641e-03 0.0000000000000000e+00  6.3329064246169853e-01 -1.0611524092287935e-02 0.0000000000000000e+00  6.3657876352250353e-01 1.0762229271601199e-03 0.0000000000000000e+00  5.0498613726049713e-01 3.9973718449415434e-02 0.0000000000000000e+00  8.2059050793605803e-01 -3.5050233329114093e-04 0.0000000000000000e+00  7.7419592450184460e-01 9.3245714392923632e-02 0.0000000000000000e+00  8.5235228468516566e-01 -7.5606480498677520e-02 0.0000000000000000e+00  9.5255363753670719e-01 2.5207801600862077e-02 0.0000000000000000e+00  8.3424887618302668e-01 -6.1815528467026939e-02 0.0000000000000000e+00  5.1094959972219323e-01 8.6379467815823532e-03 0.0000000000000000e+00  8.5755360317223506e-01 -2.1058527427871340e-03 0.0000000000000000e+00  5.2112807600955580e-01 6.2568092956708891e-03 0.0000000000000000e+00  8.2014710513758593e-01 5.1806191812623407e-05 0.0000000000000000e+00  5.5376588107348579e-01 1.6917854024741067e-03 0.0000000000000000e+00  8.3635049088789071e-01 6.8521421073612712e-03 0.0000000000000000e+00  4.6450288169313109e-01 -3.3688651469458430e-02 0.0000000000000000e+00  4.5299385431959294e-01 2.4608356004786464e-02 0.0000000000000000e+00  5.1720315746813772e-01 -3.1593940031091866e-02 0.0000000000000000e+00  8.4237056393345233e-01 -2.7359649572517353e-02 0.0000000000000000e+00  8.2771932666538262e-01 4.7428587374690183e-04 0.0000000000000000e+00  4.8199107075267961e-01 1.5750979755195951e-01 0.0000000000000000e+00  5.3917313773815734e-01 7.4048449358144933e-02 0.0000000000000000e+00  3.0512085558372454e-01 5.0557659413530229e-02 0.0000000000000000e+00  5.1894203700266384e-01 -7.3012569932447147e-02 0.0000000000000000e+00  3.0523614154318002e-01 -5.0338211069526455e-02 0.0000000000000000e+00  4.8545845312948099e-01 -1.5754771021131522e-01 0.0000000000000000e+00  5.1626855675745298e-01 -1.4327008670190398e-03 0.0000000000000000e+00  4.2806352975871015e-01 5.7963929665684900e-02 0.0000000000000000e+00  3.3728547665846093e-01 -4.6481228053319897e-02 0.0000000000000000e+00  9.4346671850856101e-01 9.0161559931402659e-03 0.0000000000000000e+00  5.1033356812233599e-01 -4.1850939468545990e-03 0.0000000000000000e+00  7.1601093079008560e-01 -1.3737740556574435e-01 0.0000000000000000e+00  4.6059242496920139e-01 1.8995491335967257e-02 0.0000000000000000e+00  4.7741842790276001e-01 1.3434724415094181e-03 0.0000000000000000e+00  7.9279249030720822e-01 7.0266437374583754e-02 0.0000000000000000e+00  8.1649741509137708e-01 3.2818648231771647e-03 0.0000000000000000e+00  9.2315335521859154e-01 -1.3677125851569622e-02 0.0000000000000000e+00  9.9209135216705069e-01 4.7711603941447628e-03 0.0000000000000000e+00  7.7503265480907646e-01 -1.8071931703714733e-03 0.0000000000000000e+00  4.7524948255385552e-01 -5.3058840416578051e-04 0.0000000000000000e+00  9.6324686925208614e-01 -2.3033508253748360e-02 0.0000000000000000e+00  7.3106352151714604e-01 -1.9371633650342324e-02 0.0000000000000000e+00  4.4151051340192504e-01 -1.1530776446185012e-02 0.0000000000000000e+00  8.5608971910387843e-01 -1.2537587992319479e-02 0.0000000000000000e+00  6.9516306399196437e-01 1.4501583692879103e-01 0.0000000000000000e+00  8.5287897510751565e-01 1.2960169862169416e-02 0.0000000000000000e+00  9.7125836337020988e-01 8.9790184448949109e-03 0.0000000000000000e+00  4.1991201934103667e-01 -2.7349847383961443e-03 0.0000000000000000e+00  8.8961235881377909e-01 7.8982854839315497e-02 0.0000000000000000e+00  6.9614541120524887e-01 -7.2452335632659784e-03 0.0000000000000000e+00  7.6618024118867589e-01 -5.3964670938299849e-03 0.0000000000000000e+00  7.0999334782362977e-01 1.2775983064910236e-02 0.0000000000000000e+00  6.6198997666849657e-01 -6.8139208625505210e-02 0.0000000000000000e+00  4.1539278048460232e-01 7.1678383609870052e-03 0.0000000000000000e+00  7.9343975848732373e-01 -7.2149825622753405e-02 0.0000000000000000e+00  4.5412312256224852e-01 -1.0581117574122590e-03 0.0000000000000000e+00  4.5713424684157755e-01 1.1952498147678010e-01 0.0000000000000000e+00  5.0522683752111985e-01 -3.0529859707083766e-02 0.0000000000000000e+00  5.0818200304140682e-01 3.0928363288724014e-02 0.0000000000000000e+00  4.5686655167521406e-01 -1.1973133827287333e-01 0.0000000000000000e+00  8.8383898621583123e-01 -4.0793068726560092e-02 0.0000000000000000e+00  7.7310776838654971e-01 9.7675223281141615e-03 0.0000000000000000e+00  7.4017014283484017e-01 4.6508711139250779e-02 0.0000000000000000e+00  8.6780037281524791e-01 -9.8596089517831095e-03 0.0000000000000000e+00  7.8285027548908048e-01 1.1397478814286284e-03 0.0000000000000000e+00  7.6403395085235881e-01 -7.5816727172799440e-04 0.0000000000000000e+00  4.3762827233164536e-01 -1.8224486627051340e-03 0.0000000000000000e+00  6.5574246116731350e-01 -7.3114919667608969e-02 0.0000000000000000e+00  9.9529369624770614e-01 -3.5086757091091218e-03 0.0000000000000000e+00  6.6142810600958624e-01 3.3427166233744858e-02 0.0000000000000000e+00  4.2735951285127610e-01 2.7075269911314378e-03 0.0000000000000000e+00  4.6203575722205792e-01 -7.5122451377425588e-04 0.0000000000000000e+00  4.3243937825537909e-01 4.1735623744745056e-04 0.0000000000000000e+00  4.5434850716268321e-01 1.7360764690368790e-03 0.0000000000000000e+00  7.8068653164167390e-01 5.3730106831733878e-03 0.0000000000000000e+00  6.8027035123805102e-01 7.1252277236807243e-02 0.0000000000000000e+00  7.4882285670642623e-01 7.4357137817787123e-04 0.0000000000000000e+00  1.6849809618799186e-01 -3.9052918599004074e-02 0.0000000000000000e+00  5.9724635134742687e-01 5.2028954794138167e-02 0.0000000000000000e+00  7.2940927825844626e-01 -1.4451190571495612e-02 0.0000000000000000e+00  7.8222273847894042e-01 2.5031763736592916e-03 0.0000000000000000e+00  1.6811150972758401e-01 3.8798399476196191e-02 0.0000000000000000e+00  6.5978921438939811e-02 2.3604473358728225e-02 0.0000000000000000e+00  7.4068703555025275e-02 2.8293072555734940e-02 0.0000000000000000e+00  7.4027976054750907e-02 -2.8258956107221189e-02 0.0000000000000000e+00  8.4225769758816918e-02 -2.7795534808972143e-02 0.0000000000000000e+00  4.1684242159005896e-01 6.7207551049812506e-04 0.0000000000000000e+00  3.6316681039928139e-01 -1.3713250622402405e-02 0.0000000000000000e+00  9.2794858519085410e-01 -1.7865444936533227e-02 0.0000000000000000e+00  7.8770846346682100e-01 -3.7397106669535612e-03 0.0000000000000000e+00  9.5676656040358354e-01 2.8475310173797608e-02 0.0000000000000000e+00  2.7539012593522944e-01 -2.0204548301009415e-02 0.0000000000000000e+00  7.7256418097668300e-01 -1.0515108018228239e-03 0.0000000000000000e+00  3.7137299095472021e-01 2.1295839542069678e-03 0.0000000000000000e+00  8.0532791338626875e-01 -7.9824816732583807e-04 0.0000000000000000e+00  7.1423736808034710e-01 -1.6604652462619929e-01 0.0000000000000000e+00  8.4194893847606966e-01 6.3279373109497591e-02 0.0000000000000000e+00  8.6598415338574097e-01 -3.1555349934778099e-02 0.0000000000000000e+00  3.7797287609191532e-01 -3.8262959753071683e-03 0.0000000000000000e+00  7.8010817422424206e-01 1.0742819134243766e-03 0.0000000000000000e+00  1.6392163064795678e-01 3.0870060827535396e-02 0.0000000000000000e+00  7.9928131523869350e-01 -8.0386942234634707e-03 0.0000000000000000e+00  8.0404847433237669e-01 4.6154766106587149e-02 0.0000000000000000e+00  9.8613775220521882e-01 1.2593185230162967e-02 0.0000000000000000e+00  2.5385838020779150e-01 1.7131595922059321e-02 0.0000000000000000e+00  8.1302703619129946e-01 -1.0639626562363513e-02 0.0000000000000000e+00  9.1536224178249181e-01 -8.3773604965970888e-02 0.0000000000000000e+00  3.6410299878180269e-01 -1.0031593570497819e-02 0.0000000000000000e+00  8.2412881962567652e-01 -4.1264849925269073e-04 0.0000000000000000e+00  9.5165349341679362e-01 -3.2044136410148694e-02 0.0000000000000000e+00  8.4528940573269473e-01 1.2947345447733508e-01 0.0000000000000000e+00  9.5053042178308844e-01 3.2703577298301346e-02 0.0000000000000000e+00  8.4624906705810943e-01 -1.3295948439317146e-01 0.0000000000000000e+00  7.0138303029534244e-01 -4.4728621895785345e-02 0.0000000000000000e+00  1.5065377530332610e-01 -3.1028506749436000e-02 0.0000000000000000e+00  2.7171959693731851e-01 2.6949748047259484e-02 0.0000000000000000e+00  3.1204871151613911e-01 1.6034566775655824e-02 0.0000000000000000e+00  5.9475365861238860e-01 1.9911157544925021e-02 0.0000000000000000e+00  8.2838782088635809e-01 2.0837979999383228e-02 0.0000000000000000e+00  6.6458851749918713e-01 1.3764158668733268e-03 0.0000000000000000e+00  3.2244183386226843e-01 -3.5511678259371542e-03 0.0000000000000000e+00  9.2618259282261084e-01 -6.0488176140930487e-03 0.0000000000000000e+00  6.6864118287333696e-01 -3.2109749675686174e-02 0.0000000000000000e+00  2.7594727590817275e-01 2.2438998250189400e-03 0.0000000000000000e+00  2.4550060204272064e-01 -1.9608804942225038e-02 0.0000000000000000e+00  6.4232221037290049e-01 -1.3094911361870038e-03 0.0000000000000000e+00  3.4844646530606277e-01 8.1154030129155022e-03 0.0000000000000000e+00  8.0147666498243353e-01 2.1887314307418686e-03 0.0000000000000000e+00  7.2390518749069410e-01 1.8134026419816408e-03 0.0000000000000000e+00  6.2019542954537643e-01 5.7381613041868774e-03 0.0000000000000000e+00  2.8997952950898848e-01 5.8216013396920679e-03 0.0000000000000000e+00  8.2712430615563126e-01 8.9691683425824065e-03 0.0000000000000000e+00  7.9269344771554207e-01 1.5451873621392109e-02 0.0000000000000000e+00  5.3171484291842808e-01 -5.1925186591343792e-02 0.0000000000000000e+00  6.7822052749439821e-01 5.8388866251822255e-02 0.0000000000000000e+00  9.6280642927862481e-01 -2.9090023460186694e-02 0.0000000000000000e+00  8.2459885240448494e-01 -7.9864321307378857e-04 0.0000000000000000e+00  8.1498832243091768e-01 -2.5838793302531364e-04 0.0000000000000000e+00  8.3286527918454711e-01 3.0415640632402717e-05 0.0000000000000000e+00  7.0764550577127694e-01 2.3534546115946568e-02 0.0000000000000000e+00  5.6021840648010346e-01 -1.4084500901516489e-01 0.0000000000000000e+00  7.2026452371039040e-01 1.6470049130328945e-01 0.0000000000000000e+00  2.8701938990890880e-01 4.4390551116035691e-04 0.0000000000000000e+00  6.4759985145727006e-01 -3.3658869343272536e-02 0.0000000000000000e+00  6.2372664590902938e-01 1.1379312337157568e-02 0.0000000000000000e+00  6.6125491699295491e-01 -1.4364745974875590e-01 0.0000000000000000e+00  6.6699447043341797e-01 1.4136560770232756e-01 0.0000000000000000e+00  8.2055120053654784e-01 5.5132991999120631e-05 0.0000000000000000e+00  8.4623803216793425e-01 1.2630350991481340e-03 0.0000000000000000e+00  7.8351078312366729e-01 5.6821058694789844e-02 0.0000000000000000e+00  7.7675852186195782e-01 -6.0656971273216946e-02 0.0000000000000000e+00  3.2290522783059167e-01 -6.9830774452466426e-04 0.0000000000000000e+00  5.8789133371164581e-01 3.0409685521426442e-02 0.0000000000000000e+00  5.8786768810967949e-01 -3.0432260517374136e-02 0.0000000000000000e+00  3.6842589689238520e-01 -1.0166602801190971e-01 0.0000000000000000e+00  6.4384365085026762e-01 2.9583584817550047e-03 0.0000000000000000e+00  5.9736304595027556e-01 8.5337700389157584e-02 0.0000000000000000e+00  8.9900433153895387e-01 -2.3160112805197387e-03 0.0000000000000000e+00  6.2691979463069925e-01 6.7734515332115014e-04 0.0000000000000000e+00  6.4794947573030159e-01 -7.0561364309013747e-04 0.0000000000000000e+00  6.2599536660204380e-01 5.6235929886628349e-03 0.0000000000000000e+00  3.0211201431313411e-01 6.4695280014973044e-02 0.0000000000000000e+00  5.6536082646753694e-01 -8.5523095105420208e-02 0.0000000000000000e+00  6.6946446188742459e-01 -7.6324767149069392e-03 0.0000000000000000e+00  6.7767543595900137e-01 -1.7654437756471518e-03 0.0000000000000000e+00  2.8810093685353982e-01 -3.7954748378226820e-04 0.0000000000000000e+00  2.8017052949058469e-01 -3.6429763008483541e-03 0.0000000000000000e+00  8.5044077550864328e-01 -3.2818236955062412e-02 0.