<?xml version="1.0"?>
<VTKFile type="UnstructuredGrid"  version="0.1"  >
<UnstructuredGrid>
<Piece  NumberOfPoints="622" NumberOfCells="1116">
<Points>
<DataArray  type="Float64"  NumberOfComponents="3"  format="ascii">-6 -2 0  -6 2 0  6 2 0  6 -2 0  -2.8 0 0  -1.2 0 0  -5.500000000001853 -2 0  -5.000000000003705 -2 0  -4.500000000005556 -2 0  -4.000000000007409 -2 0  -3.50000000000926 -2 0  -3.000000000011112 -2 0  -2.500000000012963 -2 0  -2.000000000014814 -2 0  -1.500000000016665 -2 0  -1.000000000018516 -2 0  -0.5000000000203677 -2 0  -2.204547655537681e-11 -2 0  0.4999999999796305 -2 0  0.9999999999814779 -2 0  1.499999999983327 -2 0  1.999999999985175 -2 0  2.499999999987029 -2 0  2.999999999988882 -2 0  3.499999999990735 -2 0  3.999999999992589 -2 0  4.49999999999444 -2 0  4.999999999996293 -2 0  5.499999999998147 -2 0  6 -1.500000000001387 0  6 -1.000000000002774 0  6 -0.5000000000041616 0  6 -5.505595979116151e-12 0  6 0.4999999999958384 0  6 0.9999999999972258 0  6 1.499999999998613 0  5.500000000001853 2 0  5.000000000003705 2 0  4.500000000005556 2 0  4.000000000007409 2 0  3.50000000000926 2 0  3.000000000011112 2 0  2.500000000012963 2 0  2.000000000014814 2 0  1.500000000016665 2 0  1.000000000018516 2 0  0.5000000000203677 2 0  2.204547655537681e-11 2 0  -0.4999999999796305 2 0  -0.9999999999814779 2 0  -1.499999999983327 2 0  -1.999999999985175 2 0  -2.499999999987029 2 0  -2.999999999988882 2 0  -3.499999999990735 2 0  -3.999999999992589 2 0  -4.49999999999444 2 0  -4.999999999996293 2 0  -5.499999999998147 2 0  -6 1.500000000001387 0  -6 1.000000000002774 0  -6 0.5000000000041616 0  -6 5.505595979116151e-12 0  -6 -0.4999999999958384 0  -6 -0.9999999999972258 0  -6 -1.499999999998613 0  -2.796147781337886 -0.07841371226233997 0  -2.784628224322852 -0.1560722576115546 0  -2.765552268586196 -0.2322277418021561 0  -2.739103626009626 -0.30614674589063 0  -2.705537011479457 -0.3771173894593519 0  -2.665175689843037 -0.4444561864141836 0  -2.618408362691456 -0.5075146273293722 0  -2.565685424950688 -0.5656854249477874 0  -2.507514627332613 -0.6184083626887972 0  -2.444456186417533 -0.6651756898407991 0  -2.377117389462776 -0.7055370114776264 0  -2.306146745894456 -0.7391036260080417 0  -2.232227741806235 -0.7655522685849585 0  -2.15607225761588 -0.784628224321992 0  -2.078413712266957 -0.7961477813374315 0  -2.000000000003407 -0.7999999999999998 0  -1.921586287739523 -0.7961477813380696 0  -1.843927742389945 -0.7846282243231506 0  -1.767772258198879 -0.7655522685865098 0  -1.693853254109962 -0.7391036260098718 0  -1.622882610540873 -0.7055370114795768 0  -1.555543813585629 -0.6651756898429115 0  -1.49248537267008 -0.6184083626910072 0  -1.434314575051535 -0.5656854249500112 0  -1.381591637310384 -0.5075146273316149 0  -1.334824310158267 -0.4444561864161359 0  -1.294462988521423 -0.3771173894609975 0  -1.260896373990956 -0.3061467458920351 0  -1.234447731414138 -0.2322277418032578 0  -1.215371775677287 -0.156072257612254 0  -1.203852218662147 -0.07841371226267954 0  -1.203852218662115 0.07841371226235888 0  -1.215371775677132 0.156072257611478 0  -1.234447731413795 0.232227741802127 0  -1.260896373990353 0.3061467458905811 0  -1.294462988520456 0.3771173894591898 0  -1.334824310156812 0.444456186413959 0  -1.381591637308413 0.5075146273292139 0  -1.434314575049147 0.5656854249476236 0  -1.492485372667197 0.6184083626886415 0  -1.555543813582104 0.6651756898405565 0  -1.62288261053673 0.7055370114773629 0  -1.693853254105125 0.7391036260078683 0  -1.767772258193396 0.7655522685848468 0  -1.84392774238373 0.7846282243219146 0  -1.921586287732977 0.7961477813374253 0  -1.999999999996558 0.8 0  -2.078413712260516 0.7961477813380661 0  -2.156072257610207 0.7846282243231205 0  -2.232227741801178 0.7655522685864928 0  -2.306146745890059 0.7391036260098632 0  -2.377117389459098 0.7055370114795929 0  -2.444456186414405 0.6651756898428894 0  -2.50751462732998 0.6184083626909587 0  -2.565685424948549 0.5656854249499272 0  -2.61840836268981 0.5075146273313792 0  -2.665175689841831 0.4444561864159886 0  -2.705537011478692 0.3771173894607835 0  -2.739103626009108 0.3061467458918818 0  -2.76555226858589 0.2322277418031643 0  -2.784628224322724 0.1560722576122001 0  -2.796147781337853 0.07841371226267957 0  0.6720367661319522 0.1312687487860887 0  -4.389489086394485 0.3544472233398538 0  -3.816221554046232 -0.6097988664512611 0  -3.552726516474419 0.9342959806851625 0  -0.2536610443052337 0.8162373554653355 0  -0.1843238977799138 -0.6649951410982842 0  -3.613359951620445 0.1086570650978273 0  -3.146954163409593 -1.074378179335012 0  -0.4255266515582625 0.07734891565364931 0  -0.9413731612925856 1.168014724254929 0  -2.947764053183577 1.200029094390044 0  -0.8319852757411681 -1.058626838707328 0  2.675418990747819 -1.137325591670363e-12 0  -2.602010642259726 -1.287560129290477 0  -2.334401622060699 1.335006108940604 0  -1.524718496628401 1.32890816230333 0  -1.369813829148039 -1.26145150481762 0  -3.294065651892671 -0.4630240940010318 0  -2.072749204569071 -1.388981302138359 0  -0.7546165313921411 0.5601792161340381 0  -3.224879719581335 0.4382689715877901 0  -0.7073137361349826 -0.4625305410752652 0  4.326242945813966 0.3262429458150917 0  -3.187880061217201 0.07437712177460168 0  -2.94792024259867 0.7030255657465158 0  -2.678809277907896 0.9152683582887104 0  -4.911626141576894 -0.5700186648601188 0  -2.980647654587299 -0.5685006168686053 0  -2.769438919323564 -0.8202775213660614 0  -1.936950121013948 1.220669938589229 0  -0.8971643766260747 0.2762459428874499 0  -0.8760878018253068 -0.06836412137772707 0  -1.086827485441145 0.6772548942594016 0  -1.31355927028917 0.8808768148414213 0  -1.034266382739347 -0.5912381576649568 0  -1.241594139118264 -0.836771920085274 0  1.667161185638911 -0.6367996576268693 0  1.778189842800902 0.7191719841256095 0  -3.065106827511819 -0.266795371500425 0  3.714311277362231 -0.7275465302492842 0  -1.728329421201519 -1.09954751473283 0  4.870629493137888 -0.7325040699186681 0  -3.024707894719303 0.2567561910603656 0  -4.375540207252226 1.228935704312058 0  -2.272077148001781 -1.086192861256262 0  3.351408248797803 0.9175227128129597 0  -5.141847419540732 0.8091901960109126 0  0.5769368286199241 1.111816231125821 0  0.7411482978492124 -1.079569101289617 0  -1.074013749991219 0.430231207546053 0  -1.04664573441257 -0.3358382377487088 0  -2.439195336951085 0.9224778883059374 0  -2.902607676587358 0.4360473765597399 0  -1.629450174302152 1.035617385691805 0  -2.146859933125513 1.032375363966426 0  2.587625196444542 -0.9999926061845814 0  -2.529286802957126 -0.8830616815739111 0  -1.493798157676768 -0.8794705728517196 0  -1.932158132383022 -1.026681566564148 0  -4.09956359341904 -0.1372485582942864 0  5.055802064425553 1.050933510837308 0  -4.413659685984891 -1.207626391697488 0  -4.961411026474009 0.1201902955685026 0  -3.771151641156835 -1.303594976371997 0  -3.001321503506133 -0.04919177107285733 0  -3.881733605683001 0.5124517634812003 0  -0.1971627317996802 -1.336445372382849 0  -2.742825060181767 0.6732573903735507 0  2.520439429199979 1.129372838786189 0  -1.026326428668429 0.1384273198437734 0  -2.779290004861729 -0.5844691722665721 0  -2.895095740820851 -0.4261289730972082 0  -1.275682076193407 0.6630703172777138 0  0.1045291701958869 0.3433373435296472 0  5.175560481258801 0.0608563229178163 0  -1.211574424201636 -0.5847362589868093 0  -1.85847006217035 1.007917631940711 0  4.152535916385823 1.131901130662082 0  -1.04878257200685 -0.1253529988863012 0  1.432836501626023 0.05634449574318775 0  3.560672936003603 0.01188897172456759 0  -3.351823698389408 -0.1821329582635926 0  -5.145153363200735 -1.259166339382508 0  0.03473693330309885 -0.1724947236036572 0  -4.377830921337186 -0.6172564090242229 0  -0.3943750728122595 1.410897156959435 0  -1.661073679471639 -0.9342065000197183 0  -1.49086536677686 0.8331714487926741 0  -2.584486130952032 0.7871482690034864 0  4.270535884593893 -1.259607924744415 0  -1.757417028085795 -1.505182186951191 0  -3.430586920998477 1.425579221231371 0  -2.917598827418652 -0.2298465409534677 0  -2.328978331116049 -0.9300959620317677 0  -2.148543000691344 -0.9751580214451921 0  1.002654111360038 -0.4521702885594788 0  -4.628651824080903 -0.1127998710567241 0  -2.948904386702482 0.1555943115410545 0  0.4165242577134774 -0.5629432649478633 0  -3.698137692471105 -0.3173027948676715 0  -3.491400684461791 -0.7926319721650269 0  -0.3844454817728994 0.4680628696134375 0  -3.207830713508533 0.9778749990559993 0  3.229909751065535 -1.326302454776001 0  5.330007715336748 -1.312905173261894 0  -2.649214054100534 -0.713314536278899 0  1.342022964818772 -1.328315248672686 0  -2.556460939068198 1.202372762828344 0  -0.3497819755044588 -0.3080427614060888 0  -4.928440909495523 1.387622767511967 0  1.309170811945155 1.337467055109531 0  -1.352031940181449 -0.7151198948590243 0  -0.6132855723904642 0.9519045895123004 0  4.266838388406324 -0.3707357390867402 0  -3.834389788310238 1.371594798941152 0  -1.187890214580146 0.4851427123079557 0  -1.109118888029193 0.3185947354467283 0  0.1837819401738013 1.234799661476361 0  1.108165254659559 0.6237223548284967 0  -0.5266600156584522 -0.8113991260886402 0  -4.643822083543982 0.7834094684931707 0  -1.146235204666366 -0.4027330721405781 0  2.049029845992713 -0.2664662499985428 0  2.002665761665898 -1.328912351029848 0  -1.678783505586872 0.8978832065736417 0  -2.049499525232052 0.9483890761590005 0  -2.229972236535132 0.9181006323151361 0  -3.033763529945482 -1.54240494280775 0  -3.562344364746847 0.5622550957224539 0  -5.524396842903405 -0.2709714867672603 0  -0.9710982764034376 -1.549038578476423 0  3.058819320130555 -0.5375106252795963 0  -4.170365230099585 0.7342553699229977 0  -1.045878746461381 -8.187420622554697e-05 0  -1.864822945411764 -0.9219031104673102 0  -0.6251005091687033 -0.2120650512195049 0  2.317562622406059 0.4886417799113238 0  -0.6674371191466613 0.1483993095055008 0  -2.705757882979874 1.609712312948224 0  
[...]
<PointData  Vectors="f_22"> 
<DataArray  type="Float64"  Name="f_22"  NumberOfComponents="3" format="ascii">0.0000000000000000e+00 0.0000000000000000e+00 0.0000000000000000e+00  0.0000000000000000e+00 0.0000000000000000e+00 0.0000000000000000e+00  0.0000000000000000e+00 0.0000000000000000e+00 0.0000000000000000e+00  0.0000000000000000e+00 0.0000000000000000e+00 0.0000000000000000e+00  9.9999997600266977e-01 0.0000000000000000e+00 0.0000000000000000e+00  9.9999997600266977e-01 0.0000000000000000e+00 0.0000000000000000e+00  0.0000000000000000e+00 0.0000000000000000e+00 0.0000000000000000e+00  0.0000000000000000e+00 0.0000000000000000e+00 0.0000000000000000e+00  0.0000000000000000e+00 0.0000000000000000e+00 0.0000000000000000e+00  0.0000000000000000e+00 0.0000000000000000e+00 0.0000000000000000e+00  0.0000000000000000e+00 0.0000000000000000e+00 0.0000000000000000e+00  0.0000000000000000e+00 0.0000000000000000e+00 0.0000000000000000e+00  0.0000000000000000e+00 0.0000000000000000e+00 0.0000000000000000e+00  0.0000000000000000e+00 0.0000000000000000e+00 0.0000000000000000e+00  0.0000000000000000e+00 0.0000000000000000e+00 0.0000000000000000e+00  0.0000000000000000e+00 0.0000000000000000e+00 0.0000000000000000e+00  0.0000000000000000e+00 0.0000000000000000e+00 0.0000000000000000e+00  0.0000000000000000e+00 0.0000000000000000e+00 0.0000000000000000e+00  0.0000000000000000e+00 0.0000000000000000e+00 0.0000000000000000e+00  0.0000000000000000e+00 0.0000000000000000e+00 0.0000000000000000e+00  0.0000000000000000e+00 0.0000000000000000e+00 0.0000000000000000e+00  0.0000000000000000e+00 0.0000000000000000e+00 0.0000000000000000e+00  0.0000000000000000e+00 0.0000000000000000e+00 0.0000000000000000e+00  0.0000000000000000e+00 0.0000000000000000e+00 0.0000000000000000e+00  0.0000000000000000e+00 0.0000000000000000e+00 0.0000000000000000e+00  0.0000000000000000e+00 0.0000000000000000e+00 0.0000000000000000e+00  0.0000000000000000e+00 0.0000000000000000e+00 0.0000000000000000e+00  0.0000000000000000e+00 0.0000000000000000e+00 0.0000000000000000e+00  0.0000000000000000e+00 0.0000000000000000e+00 0.0000000000000000e+00  2.9040582814044175e-01 1.2278939495756719e-04 0.0000000000000000e+00  3.1716393834093126e-01 1.5982604849837541e-04 0.0000000000000000e+00  3.1868062441299311e-01 -1.8395335152091578e-05 0.0000000000000000e+00  3.1877559033379593e-01 -8.2226202724501647e-06 0.0000000000000000e+00  3.1870047195498108e-01 -6.2214056147187935e-06 0.0000000000000000e+00  3.1785193692791336e-01 2.1791360682894292e-04 0.0000000000000000e+00  2.9102545300014782e-01 -4.8979089869608699e-04 0.0000000000000000e+00  0.0000000000000000e+00 0.0000000000000000e+00 0.0000000000000000e+00  0.0000000000000000e+00 0.0000000000000000e+00 0.0000000000000000e+00  0.0000000000000000e+00 0.0000000000000000e+00 0.0000000000000000e+00  0.0000000000000000e+00 0.0000000000000000e+00 0.0000000000000000e+00  0.0000000000000000e+00 0.0000000000000000e+00 0.0000000000000000e+00  0.0000000000000000e+00 0.0000000000000000e+00 0.0000000000000000e+00  0.0000000000000000e+00 0.0000000000000000e+00 0.0000000000000000e+00  0.0000000000000000e+00 0.0000000000000000e+00 0.0000000000000000e+00  0.0000000000000000e+00 0.0000000000000000e+00 0.0000000000000000e+00  0.0000000000000000e+00 0.0000000000000000e+00 0.0000000000000000e+00  0.0000000000000000e+00 0.0000000000000000e+00 0.0000000000000000e+00  0.0000000000000000e+00 0.0000000000000000e+00 0.0000000000000000e+00  0.0000000000000000e+00 0.0000000000000000e+00 0.0000000000000000e+00  0.0000000000000000e+00 0.0000000000000000e+00 0.0000000000000000e+00  0.0000000000000000e+00 0.0000000000000000e+00 0.0000000000000000e+00  0.0000000000000000e+00 0.0000000000000000e+00 0.0000000000000000e+00  0.0000000000000000e+00 0.0000000000000000e+00 0.0000000000000000e+00  0.0000000000000000e+00 0.0000000000000000e+00 0.0000000000000000e+00  0.0000000000000000e+00 0.0000000000000000e+00 0.0000000000000000e+00  0.0000000000000000e+00 0.0000000000000000e+00 0.0000000000000000e+00  0.0000000000000000e+00 0.0000000000000000e+00 0.0000000000000000e+00  0.0000000000000000e+00 0.0000000000000000e+00 0.0000000000000000e+00  0.0000000000000000e+00 0.0000000000000000e+00 0.0000000000000000e+00  2.8441004754412119e-01 -1.1360549867260651e-03 0.0000000000000000e+00  3.1496416441664449e-01 -1.0140654462381415e-03 0.0000000000000000e+00  3.2433511854002695e-01 -1.3541256504382986e-03 0.0000000000000000e+00  3.2928261969350969e-01 1.0878145121669199e-03 0.0000000000000000e+00  3.2533130624490403e-01 4.6101722235625362e-04 0.0000000000000000e+00  3.1611795862439102e-01 8.6884387566593408e-04 0.0000000000000000e+00  2.8410290569257102e-01 9.0758821417107950e-04 0.0000000000000000e+00  9.9999997600266977e-01 0.0000000000000000e+00 0.0000000000000000e+00  9.9999997600266977e-01 0.0000000000000000e+00 0.0000000000000000e+00  9.9999997600266977e-01 0.0000000000000000e+00 0.0000000000000000e+00  9.9999997600266977e-01 0.0000000000000000e+00 0.0000000000000000e+00  9.9999997600266977e-01 0.0000000000000000e+00 0.0000000000000000e+00  9.9999997600266977e-01 0.0000000000000000e+00 0.0000000000000000e+00  9.9999997600266977e-01 0.0000000000000000e+00 0.0000000000000000e+00  9.9999997600266977e-01 0.0000000000000000e+00 0.0000000000000000e+00  9.9999997600266977e-01 0.0000000000000000e+00 0.0000000000000000e+00  9.9999997600266977e-01 0.0000000000000000e+00 0.0000000000000000e+00  9.9999997600266977e-01 0.0000000000000000e+00 0.0000000000000000e+00  9.9999997600266977e-01 0.0000000000000000e+00 0.0000000000000000e+00  9.9999997600266977e-01 0.0000000000000000e+00 0.0000000000000000e+00  9.9999997600266977e-01 0.0000000000000000e+00 0.0000000000000000e+00  9.9999997600266977e-01 0.0000000000000000e+00 0.0000000000000000e+00  9.9999997600266977e-01 0.0000000000000000e+00 0.0000000000000000e+00  9.9999997600266977e-01 0.0000000000000000e+00 0.0000000000000000e+00  9.9999997600266977e-01 0.0000000000000000e+00 0.0000000000000000e+00  9.9999997600266977e-01 0.0000000000000000e+00 0.0000000000000000e+00  9.9999997600266977e-01 0.0000000000000000e+00 0.0000000000000000e+00  9.9999997600266977e-01 0.0000000000000000e+00 0.0000000000000000e+00  9.9999997600266977e-01 0.0000000000000000e+00 0.0000000000000000e+00  9.9999997600266977e-01 0.0000000000000000e+00 0.0000000000000000e+00  9.9999997600266977e-01 0.0000000000000000e+00 0.0000000000000000e+00  9.9999997600266977e-01 0.0000000000000000e+00 0.0000000000000000e+00  9.9999997600266977e-01 0.0000000000000000e+00 0.0000000000000000e+00  9.9999997600266977e-01 0.0000000000000000e+00 0.0000000000000000e+00  9.9999997600266977e-01 0.0000000000000000e+00 0.0000000000000000e+00  9.9999997600266977e-01 0.0000000000000000e+00 0.0000000000000000e+00  9.9999997600266977e-01 0.0000000000000000e+00 0.0000000000000000e+00  9.9999997600266977e-01 0.0000000000000000e+00 0.0000000000000000e+00  9.9999997600266977e-01 0.0000000000000000e+00 0.0000000000000000e+00  9.9999997600266977e-01 0.0000000000000000e+00 0.0000000000000000e+00  9.9999997600266977e-01 0.0000000000000000e+00 0.0000000000000000e+00  9.9999997600266977e-01 0.0000000000000000e+00 0.0000000000000000e+00  9.9999997600266977e-01 0.0000000000000000e+00 0.0000000000000000e+00  9.9999997600266977e-01 0.0000000000000000e+00 0.0000000000000000e+00  9.9999997600266977e-01 0.0000000000000000e+00 0.0000000000000000e+00  9.9999997600266977e-01 0.0000000000000000e+00 0.0000000000000000e+00  9.9999997600266977e-01 0.0000000000000000e+00 0.0000000000000000e+00  9.9999997600266977e-01 0.0000000000000000e+00 0.0000000000000000e+00  9.9999997600266977e-01 0.0000000000000000e+00 0.0000000000000000e+00  9.9999997600266977e-01 0.0000000000000000e+00 0.0000000000000000e+00  9.9999997600266977e-01 0.0000000000000000e+00 0.0000000000000000e+00  9.9999997600266977e-01 0.0000000000000000e+00 0.0000000000000000e+00  9.9999997600266977e-01 0.0000000000000000e+00 0.0000000000000000e+00  9.9999997600266977e-01 0.0000000000000000e+00 0.0000000000000000e+00  9.9999997600266977e-01 0.0000000000000000e+00 0.0000000000000000e+00  9.9999997600266977e-01 0.0000000000000000e+00 0.0000000000000000e+00  9.9999997600266977e-01 0.0000000000000000e+00 0.0000000000000000e+00  9.9999997600266977e-01 0.0000000000000000e+00 0.0000000000000000e+00  9.9999997600266977e-01 0.0000000000000000e+00 0.0000000000000000e+00  9.9999997600266977e-01 0.0000000000000000e+00 0.0000000000000000e+00  9.9999997600266977e-01 0.0000000000000000e+00 0.0000000000000000e+00  9.9999997600266977e-01 0.0000000000000000e+00 0.0000000000000000e+00  9.9999997600266977e-01 0.0000000000000000e+00 0.0000000000000000e+00  9.9999997600266977e-01 0.0000000000000000e+00 0.0000000000000000e+00  9.9999997600266977e-01 0.0000000000000000e+00 0.0000000000000000e+00  9.9999997600266977e-01 0.0000000000000000e+00 0.0000000000000000e+00  9.9999997600266977e-01 0.0000000000000000e+00 0.0000000000000000e+00  9.9999997600266977e-01 0.0000000000000000e+00 0.0000000000000000e+00  9.9999997600266977e-01 0.0000000000000000e+00 0.0000000000000000e+00  6.2027125709559638e-01 2.6016298518545811e-02 0.0000000000000000e+00  3.4041650907509846e-01 -1.2162211320340241e-02 0.0000000000000000e+00  3.4574531307529172e-01 5.7905168757489106e-02 0.0000000000000000e+00  2.9960867776003464e-01 -8.7283287261293918e-02 0.0000000000000000e+00  5.3330929026220864e-01 2.1764898488886147e-01 0.0000000000000000e+00  6.2135598998472596e-01 -1.6591583712664648e-01 0.0000000000000000e+00  4.1793351750609475e-01 -2.0328562590678962e-02 0.0000000000000000e+00  2.0948705812718735e-01 1.3040321217467724e-01 0.0000000000000000e+00  8.6804189984996372e-01 1.7408233739230672e-02 0.0000000000000000e+00  6.3423422756879094e-02 1.9406131404299332e-01 0.0000000000000000e+00  1.3608503998582122e-01 -1.2005686500702513e-01 0.0000000000000000e+00  3.3788566834346018e-01 -2.6409627227565974e-01 0.0000000000000000e+00  3.3593655092610453e-01 -1.6929385343373202e-04 0.0000000000000000e+00  -2.0855781455494018e-02 1.9876266736922643e-01 0.0000000000000000e+00  -2.0286281190076527e-01 -2.8262129010318698e-01 0.0000000000000000e+00  -4.4007927360288634e-01 -2.2054941144247475e-01 0.0000000000000000e+00  -3.0848947639360069e-01 1.1043143637595562e-01 0.0000000000000000e+00  4.1483679781187333e-01 1.5373754837460404e-01 0.0000000000000000e+00  -3.6943073372763546e-01 3.1514043228671729e-01 0.0000000000000000e+00  8.5207812347911238e-01 1.3420135195615843e-01 0.0000000000000000e+00  4.3717924815414183e-01 -1.7317169806544416e-01 0.0000000000000000e+00  8.6692178292341571e-01 -1.0985917968393147e-01 0.0000000000000000e+00  3.1926315858963222e-01 3.9406195306005147e-04 0.0000000000000000e+00  5.6667326256837702e-01 -4.1267763143465599e-02 0.0000000000000000e+00  2.7076586414565623e-01 -3.2062250748956767e-01 0.0000000000000000e+00  9.8565618906596899e-03 -4.0503048294600330e-01 0.0000000000000000e+00  3.2667326641635291e-01 6.3226552906379407e-03 0.0000000000000000e+00  3.7673028295194572e-01 3.2859102811614060e-01 0.0000000000000000e+00  1.0924536195647847e-01 4.0698826315547110e-01 0.0000000000000000e+00  -3.6709894374890129e-01 -3.6226196879566902e-01 0.0000000000000000e+00  9.5203938340126271e-01 4.7785028716151534e-02 0.0000000000000000e+00  9.6582704077505976e-01 -1.2904182394250233e-02 0.0000000000000000e+00  9.3850447147899052e-01 1.0386516387167523e-01 0.0000000000000000e+00  6.8271640175683357e-01 4.6416904999936108e-02 0.0000000000000000e+00  9.3248461070441757e-01 -9.5538089502235746e-02 0.0000000000000000e+00  7.9890024660725878e-01 -7.7250534184027553e-02 0.0000000000000000e+00  3.5631122636618900e-01 -9.2195293838632578e-02 0.0000000000000000e+00  3.3482709455630855e-01 8.5895954321810852e-02 0.0000000000000000e+00  5.7635466921582168e-01 1.9878989012490209e-01 0.0000000000000000e+00  3.1887666016362237e-01 -2.1981776998155761e-03 0.0000000000000000e+00  -1.3872967893853322e-01 2.2791051669190335e-01 0.0000000000000000e+00  3.1854721520829682e-01 -2.6869477905118119e-04 0.0000000000000000e+00  6.0617179845821445e-01 -2.1448693379989767e-01 0.0000000000000000e+00  3.0205133252191224e-01 -1.7929424846762073e-02 0.0000000000000000e+00  -2.9651444899308227e-01 4.6535173707280214e-01 0.0000000000000000e+00  3.1600282323740381e-01 4.2187478632899388e-03 0.0000000000000000e+00  3.2038385651869083e-01 -4.0185688802037061e-03 0.0000000000000000e+00  2.1658327145735054e-01 1.6356952426035387e-01 0.0000000000000000e+00  2.3659381994345058e-01 -1.6234300593913209e-01 0.0000000000000000e+00  9.6148474050850696e-01 5.2881727229102060e-02 0.0000000000000000e+00  9.6987330691888962e-01 -4.1671821974778860e-02 0.0000000000000000e+00  -1.8074986243941424e-01 -5.4758974415375483e-01 0.0000000000000000e+00  5.0970197426784380e-01 -3.7002999020785693e-01 0.0000000000000000e+00  6.7721468697389070e-02 -1.5153458878533527e-01 0.0000000000000000e+00  -2.9913225175700975e-01 -4.2324810478694369e-01 0.0000000000000000e+00  3.1033229516785488e-01 -1.9113934841150738e-02 0.0000000000000000e+00  -8.8550606276705621e-02 5.3573353371337418e-01 0.0000000000000000e+00  6.2573939240546539e-01 4.0147992314775284e-03 0.0000000000000000e+00  -1.7519978515428167e-01 2.9208595039643775e-01 0.0000000000000000e+00  3.5941069927375136e-01 1.0142535155448497e-02 0.0000000000000000e+00  3.1630605759249625e-01 4.4890848506620018e-04 0.0000000000000000e+00  3.0314112777486113e-01 1.7317391220113009e-02 0.0000000000000000e+00  3.3225526407773021e-01 -8.5872748311189250e-04 0.0000000000000000e+00  2.7033149549292423e-01 3.9977336350425524e-02 0.0000000000000000e+00  7.1435945239259491e-01 3.8926475455057327e-02 0.0000000000000000e+00  3.5316612170881939e-01 -4.5220057002614028e-02 0.0000000000000000e+00  -3.7596026155594528e-02 -2.1397089443017836e-01 0.0000000000000000e+00  2.0954327968740996e-01 -5.0853471195809985e-01 0.0000000000000000e+00  3.0255599643472253e-01 2.0408937369779001e-02 0.0000000000000000e+00  9.8554590800946240e-01 1.5530407479057031e-02 0.0000000000000000e+00  3.2404458202747782e-01 5.0960468926120395e-01 0.0000000000000000e+00  5.2961947566378798e-01 3.6672342531464241e-01 0.0000000000000000e+00  9.8415457686685093e-01 4.2795404331619387e-02 0.0000000000000000e+00  6.9740922841659181e-01 7.3860853106402072e-02 0.0000000000000000e+00  3.1887884496604890e-01 9.8644887917208400e-05 0.0000000000000000e+00  9.7182237925612314e-01 -4.9127436327957325e-02 0.0000000000000000e+00  -7.7498886277891629e-02 -2.3764246285657839e-01 0.0000000000000000e+00  3.1486205892690033e-01 8.4530107559057624e-04 0.0000000000000000e+00  9.8879588367918592e-01 -1.3667757906981911e-02 0.0000000000000000e+00  4.7434810133641714e-01 1.1013881796053159e-02 0.0000000000000000e+00  3.2179470131335836e-01 6.6258140292887836e-05 0.0000000000000000e+00  4.7928244986677893e-01 6.6571774087047897e-02 0.0000000000000000e+00  3.0644869939103569e-01 4.1742396782889161e-03 0.0000000000000000e+00  7.4926295404832888e-01 -3.9176753711086906e-02 0.0000000000000000e+00  3.3147004009595482e-01 1.9752973473852319e-02 0.0000000000000000e+00  -1.3458999019584994e-01 2.1801405492743287e-01 0.0000000000000000e+00  3.1569915626993023e-01 7.2797939606308759e-02 0.0000000000000000e+00  7.9476697987774736e-01 8.1748143271019574e-03 0.0000000000000000e+00  -2.3742273574443584e-02 -6.0214953844348673e-01 0.0000000000000000e+00  3.1166515632838437e-01 -4.7703229190828586e-04 0.0000000000000000e+00  -5.5472890707717892e-01 2.5462315406245645e-01 0.0000000000000000e+00  2.2203620528294693e-01 -4.1816898628141065e-02 0.0000000000000000e+00  7.0399658861811365e-01 2.6125754299071641e-01 0.0000000000000000e+00  -2.5747286617687715e-01 5.3061617513618120e-01 0.0000000000000000e+00  -2.7714902260991381e-01 4.0526273716128858e-01 0.0000000000000000e+00  4.9725568245249052e-01 -8.4539870199539735e-02 0.0000000000000000e+00  3.3763965690332248e-01 3.1962589410161513e-03 0.0000000000000000e+00  7.3099114128223541e-01 -1.6356575432233092e-01 0.0000000000000000e+00  5.5515142761379777e-01 -1.0995676895112896e-01 0.0000000000000000e+00  3.8756588062964153e-01 4.9270555093084610e-02 0.0000000000000000e+00  3.1835308047346700e-01 1.0635493526739918e-01 0.0000000000000000e+00  7.7251561585442707e-01 1.1850626642229858e-01 0.0000000000000000e+00  2.4651134532499408e-01 -1.4070930071974291e-01 0.0000000000000000e+00  3.0456071874385149e-01 -3.4136952458220446e-03 0.0000000000000000e+00  3.0966076478698951e-01 -3.8210944660984875e-05 0.0000000000000000e+00  8.4868205296468893e-02 6.0527981787372565e-01 0.0000000000000000e+00  1.8810439958342851e-01 -9.9799012506276777e-02 0.0000000000000000e+00  -6.8059686351903223e-02 -2.7087331038605678e-01 0.0000000000000000e+00  8.1272374118932955e-01 -7.6859641479131866e-02 0.0000000000000000e+00  2.9583867011962944e-01 -5.4541138400979409e-03 0.0000000000000000e+00  1.7723137006020265e-01 9.9592105656801266e-02 0.0000000000000000e+00  9.8284905320743510e-01 -3.1528061121238904e-02 0.0000000000000000e+00  4.9825413345547021e-01 2.8915941375568299e-01 0.0000000000000000e+00  3.1929297867213824e-01 -5.0477029767677958e-04 0.0000000000000000e+00  2.6631107205124821e-01 -3.2336084611759054e-02 0.0000000000000000e+00  9.7345872089649643e-01 3.9083112867182121e-02 0.0000000000000000e+00  9.8131625355257068e-01 2.9273200937607671e-02 0.0000000000000000e+00  1.1502403110229276e-01 1.8205390015722206e-01 0.0000000000000000e+00  4.2505559514374502e-01 1.1163596678072150e-01 0.0000000000000000e+00  6.2848752875933289e-01 -2.3934415370584727e-01 0.0000000000000000e+00  3.2331640856177313e-01 -1.2220089369415182e-02 0.0000000000000000e+00  9.7691525837297744e-01 -3.5405813476194418e-02 0.0000000000000000e+00  3.6762057735818504e-01 -2.8857601326763647e-02 0.0000000000000000e+00  2.6855313645899231e-01 -3.7853501684799076e-02 0.0000000000000000e+00  4.5042286698857992e-01 -4.1563987413112145e-02 0.0000000000000000e+00  -1.9466792720066314e-01 -2.9936645303371823e-01 0.0000000000000000e+00  -2.8671141833591446e-01 -4.7347398003056579e-01 0.0000000000000000e+00  1.4687583181039129e-01 2.9330649260729737e-02 0.0000000000000000e+00  3.6495892991820911e-01 -9.0619613763612328e-02 0.0000000000000000e+00  3.2781888706443379e-01 8.2466067915858501e-04 0.0000000000000000e+00  -5.6336526347557903e-01 -7.7215172651731404e-02 0.0000000000000000e+00  3.2259374287219300e-01 -7.0229439320766210e-03 0.0000000000000000e+00  3.2887907496124963e-01 -3.0831306259163995e-02 0.0000000000000000e+00  9.9077110149650649e-01 -3.4249115837895719e-04 0.0000000000000000e+00  1.2528400967014866e-01 1.1647478097512962e-01 0.0000000000000000e+00  9.0056257733712841e-01 -4.9215366075880083e-02 0.0000000000000000e+00  3.3762645453518414e-01 2.7444470237463173e-02 0.0000000000000000e+00  9.1975350768147346e-01 3.2180990031027500e-02 0.0000000000000000e+00  9.2695536083984259e-02 -3.4279636744889520e-02 0.0000000000000000e+00  2.5455704023439807e-01 3.8418543240957899e-02 0.0000000000000000e+00  3.6926809135104111e-01 -5.0916576016114834e-01 0.0000000000000000e+00  6.5416101844335983e-01 -3.7985120146427231e-01 0.0000000000000000e+00  9.3207329787248128e-01 -5.5117167242507502e-02 0.0000000000000000e+00  3.1399141395882496e-01 1.8752320238607531e-01 0.0000000000000000e+00  3.0681337662645503e-01 -1.2480416425029190e-03 0.0000000000000000e+00  2.4105809460151978e-01 -1.8937650076776277e-01 0.0000000000000000e+00  -6.9576304915735476e-01 4.0329143637417610e-03 0.0000000000000000e+00  3.2569861078373402e-01 -1.8659948937509438e-01 0.0000000000000000e+00  -3.6934704751288483e-01 -1.5945776237029419e-01 0.0000000000000000e+00  3.7263197767521877e-01 -1.2363460478123712e-02 0.0000000000000000e+00  9.7498267978851627e-01 2.4276720751961189e-02 0.0000000000000000e+00  8.9534379821122323e-01 7.9430555669182973e-02 0.0000000000000000e+00  5.8903473735789635e-01 3.7241892172178548e-01 0.0000000000000000e+00  7.4400199871855255e-01 2.2055538831099311e-01 0.0000000000000000e+00  9.9114864480126874e-01 -1.6558031686821399