<?xml version="1.0"?>
<VTKFile type="UnstructuredGrid"  version="0.1"  >
<UnstructuredGrid>
<Piece  NumberOfPoints="406" NumberOfCells="722">
<Points>
<DataArray  type="Float64"  NumberOfComponents="3"  format="ascii">-6 -2 0  -6 2 0  6 2 0  6 -2 0  -2.8 0 0  -1.2 0 0  -5.500000000001853 -2 0  -5.000000000003705 -2 0  -4.500000000005556 -2 0  -4.000000000007409 -2 0  -3.50000000000926 -2 0  -3.000000000011112 -2 0  -2.500000000012963 -2 0  -2.000000000014814 -2 0  -1.500000000016665 -2 0  -1.000000000018516 -2 0  -0.5000000000203677 -2 0  -2.204547655537681e-11 -2 0  0.4999999999796305 -2 0  0.9999999999814779 -2 0  1.499999999983327 -2 0  1.999999999985175 -2 0  2.499999999987029 -2 0  2.999999999988882 -2 0  3.499999999990735 -2 0  3.999999999992589 -2 0  4.49999999999444 -2 0  4.999999999996293 -2 0  5.499999999998147 -2 0  6 -1.500000000001387 0  6 -1.000000000002774 0  6 -0.5000000000041616 0  6 -5.505595979116151e-12 0  6 0.4999999999958384 0  6 0.9999999999972258 0  6 1.499999999998613 0  5.500000000001853 2 0  5.000000000003705 2 0  4.500000000005556 2 0  4.000000000007409 2 0  3.50000000000926 2 0  3.000000000011112 2 0  2.500000000012963 2 0  2.000000000014814 2 0  1.500000000016665 2 0  1.000000000018516 2 0  0.5000000000203677 2 0  2.204547655537681e-11 2 0  -0.4999999999796305 2 0  -0.9999999999814779 2 0  -1.499999999983327 2 0  -1.999999999985175 2 0  -2.499999999987029 2 0  -2.999999999988882 2 0  -3.499999999990735 2 0  -3.999999999992589 2 0  -4.49999999999444 2 0  -4.999999999996293 2 0  -5.499999999998147 2 0  -6 1.500000000001387 0  -6 1.000000000002774 0  -6 0.5000000000041616 0  -6 5.505595979116151e-12 0  -6 -0.4999999999958384 0  -6 -0.9999999999972258 0  -6 -1.499999999998613 0  -2.776753453941174 -0.1914525314286965 0  -2.708364820523325 -0.3717785376335722 0  -2.598808598538216 -0.5304981265911284 0  -2.454451797386757 -0.65838709271366 0  -2.283683909636528 -0.748012994147384 0  -2.096429344207466 -0.7941670992780535 0  -1.903570655798842 -0.7941670992788195 0  -1.716316090368095 -0.7480129941491368 0  -1.545548202616307 -0.6583870927157747 0  -1.401191401463757 -0.530498126593356 0  -1.291635179477527 -0.371778537635196 0  -1.223246546059047 -0.1914525314295925 0  -1.223246546058803 0.1914525314286035 0  -1.291635179476594 0.3717785376334188 0  -1.401191401461634 0.5304981265909601 0  -1.545548202612898 0.6583870927134221 0  -1.716316090363093 0.7480129941472402 0  -1.903570655792394 0.7941670992780367 0  -2.096429344201276 0.7941670992788055 0  -2.283683909631911 0.7480129941491347 0  -2.454451797383697 0.6583870927157729 0  -2.598808598536385 0.530498126593196 0  -2.70836482052258 0.3717785376349917 0  -2.776753453940975 0.1914525314295042 0  0.4588466633941945 0.2704149791022056 0  -4.424312812173863 0.2760319703992994 0  -3.803977598762586 -0.6841584599595646 0  -0.1330968762779425 -0.6798763971615133 0  2.451109587541276 3.169800318630399e-13 0  -3.563610936250569 0.5929994091167295 0  4.204753319582647 0.2820669554523581 0  -0.4390897559348154 0.6178095532273566 0  -3.041446812595122 1.175550440315544 0  -0.9622132806516797 1.132103015222783 0  1.069493318942931 -0.773608156980569 0  -4.924330687080279 -0.7127064269610045 0  -3.024693497948964 -1.195179289656404 0  -0.9648749555625579 -1.256854520022574 0  -3.443624282349383 -0.2044158249759613 0  -0.5611500783757608 -0.1747080110423833 0  1.60270880116926 0.7487034276124258 0  3.488352576142236 -0.8228939860777884 0  4.816375011670135 -0.8163750116689444 0  3.243628045085357 0.8578172796997985 0  -4.228632884234073 1.228069101636678 0  -2.365220384435482 -1.356128547810356 0  -1.637465979486354 1.3571687267915 0  -1.642380978561139 -1.359365080147485 0  -2.362988915989869 1.356737096243695 0  -5.134120367293631 0.8356299802910161 0  2.077496878467794 -0.9514080034522553 0  4.960859291178299 0.9608592911785537 0  0.3293120056474302 1.148965409695154 0  -5.157560560414062 0.09447106214747865 0  -3.14779387667392 -0.6330563038825547 0  -3.148134455585257 0.4354299640428653 0  -0.8464439673630421 0.4159277415926296 0  -0.9918125625721008 -0.7191748422889824 0  -4.355349213295776 -1.234510499778242 0  1.582074659164868 -0.06850205959954866 0  2.400584045214166 1.204278622181321 0  5.102831660739063 0.03453404176596848 0  4.083259768981113 1.154272958349666 0  -3.992394834362243 -0.1621022234411988 0  0.4290302718942113 -1.225465289645401 0  -3.681487986394671 -1.310544246656267 0  -3.640289698916164 1.187023654838123 0  0.468851680921228 -0.447055967952278 0  3.315209904217932 0.05667935655546536 0  -2.541160649745046 -1.046980928586996 0  -1.45196684542695 1.044189935346116 0  -2.000844595891861 -1.207983108473125 0  -1.453092202970521 -1.061139264918894 0  -2.000050543938391 1.207806685704176 0  -2.548033154566413 1.04418993534851 0  4.13054585796652 -1.232871249381608 0  -0.3301617095463629 1.221692405319566 0  -0.2880491989587189 -1.359626628407983 0  -0.0758941643813178 0.132275811829787 0  2.826389221580753 -1.233168480096227 0  -2.922070412327736 0.7575752117792038 0  1.003070890178416 1.271347915034201 0  -5.319521816151902 -1.310543894393663 0  -1.070407062963812 0.7877698545098388 0  -4.562499863038985 -0.2302396981426722 0  -3.164226661545047 0.07179577787350272 0  -0.9091377812900333 0.132454654016971 0  4.116029045943655 -0.4851826871817362 0  5.316659189209927 -1.316659189208741 0  -0.9498828454673396 -0.4149758979014553 0  -4.037769805263969 0.6896174350675625 0  1.431664772855882 -1.327784137638992 0  -3.646693623568034 0.1600006358878044 0  -2.878371345483476 -0.7910345833001061 0  1.062603041385242 0.2894765870627741 0  -0.547955103783681 0.1635272504420374 0  -4.804809838419659 1.41016301576038 0  -3.042895319571192 -0.3694931303482478 0  -4.59252578392403 0.792267765362792 0  2.823271260730033 -0.5472430318427347 0  -4.28575390662405 -0.7521491832384866 0  -0.5524005545121191 -0.9037367558558163 0  1.815219025072439 1.388812135783969 0  -1.288398729718543 -0.8178399475601057 0  -5.424388493366639 1.35375165044146 0  -2.256991952837567 -1.049538527273222 0  -1.739586738723494 -1.052327527873255 0  -1.738827359988536 1.050180627239116 0  -2.257795730428802 1.049701225145305 0  -0.62222340523776 -0.5483611729237363 0  2.065188519029698 0.5424877383589943 0  0.1055865106318892 0.7347782870471022 0  1.013082573993895 -0.2061877611231605 0  -5.428323520618333 -0.4386412085227075 0  5.374041502384443 -0.5304401760993408 0  3.435185060219232 -1.377658617395091 0  -3.302377238490527 0.8841390072780534 0  -0.9902123298072768 -0.124175295282554 0  0.7186958547669859 0.8724503317343631 0  2.941237214953417 1.390391532351976 0  4.708037787864423 -1.340276032051348 0  5.395029680982659 1.395029680983341 0  3.591022587550188 1.348260650408605 0  2.759385971589342 0.4857447325740718 0  -0.6832705231418494 0.8879387563573758 0  5.437781298507145 0.5981501503262471 0  -2.698603003287285 1.617130043745112 0  -3.463358189947519 -1.013588318179017 0  1.710866040171871 -0.6978716337870808 0  3.642182982762737 0.4555704362064124 0  -2.699802128031161 -1.618310703146212 0  -1.3020054856637 1.619819977935582 0  -2.000000000004996 -1.566396763829867 0  -1.999999999994794 1.566396763830688 0  -1.247812462071684 -1.595232739507426 0  4.59429106759859 1.420052135572917 0  0.9448382581152466 -1.440259145469251 0  -0.116376100998861 -0.2606209011258676 0  -4.774521510507792 0.4245390872783272 0  -2.983910172370106 -0.1208000607277856 0  -3.353983741142061 1.576062863985777 0  -5.473352579109997 0.4917619255280954 0  -4.828650470275986 -1.493148538517745 0  4.639973657165532 -0.2833178611094909 0  -2.660279445404468 0.7699932347178977 0  -1.335045190775955 0.7744876666923373 0  -3.395669172689978 0.2584951122361346 0  2.279110606119369 -1.465899541383697 0  4.734317729212562 0.4520963557364723 0  -0.6334913028224612 1.584213953723378 0  2.121854101359879 -0.4289611127787379 0  -3.474459720833238 -0.4977581316675216 0  -1.066539898844178 0.3411379476537602 0  -3.361849707555382 -1.611428512420182 0  -4.099039818938317 0.3306400369415774 0  -2.935324777364672 0.354721898811665 0  -3.973578595052027 1.482940358734671 0  3.784450148635689 -0.0702780807301525 0  -1.191348122671212 -0.5614501189722798 0  -2.838672605956353 -0.5493179047027598 0  -1.184983441257359 0.5617520886612424 0  -2.811184099847449 0.5574240755049175 0  0.2702752249355158 -0.8003643570420809 0  -0.6945947797857237 -1.593893965175195 0  0.001175881878679056 1.504521009023778 0  0.6072931735145096 1.501814722697789 0  -3.991896293645949 -1.047264188412552 0  -3.734097395159253 -0.3261671578666079 0  -5.539652387691843 -0.8857154182585802 0  -4.395061924111849 1.563293728588296 0  0.2258327611651416 -0.08745142624872881 0  -3.774816634825771 0.8676973328379478 0  2.208484493569073 1.6256686312487 0  0.1309939514660535 -1.566169703482512 0  -5.551414360955331 0.9459842275970113 0  -4.04734138658365 -1.51163984963472 0  -4.947145019546805 -0.3299925153029702 0  4.320410447198621 0.6970857582435144 0  -4.707557346727139 -1.000565649857444 0  1.353711468973986 1.582551234446199 0  1.674156483558973 0.3266252271732694 0  -4.039105552973997 -0.4537604746027087 0  0.01051727619263377 -1.088858357362194 0  -0.2234942609176301 0.8619127912343982 0  -2.95903482691863 0.1219373374385197 0  -4.682467695920681 0.0804575682243254 0  5.535750224195656 -0.1525732643419722 0  -4.290083947414376 -0.0005258314026840717 0  1.136102562417988 0.7655312464039168 0  -2.816589394567214 0.9927597419785312 0  -2.645374456162409 -0.7645902451387543 0  4.18414576655837 1.624276131878667 0  0.7127337088822223 -0.9006358935856398 0  1.972418102153911 0.9727040774616764 0  -2.42199174813501 0.8591219219254587 0  -2.418604734200992 -0.8552987735117754 0  -5.573597213364169 -0.03612430678117123 0  2.024792870869397 0.05574071630590883 0  -1.578875191508968 0.861424470724936 0  -1.54706008231699 -0.8630049102346303 0  3.848662181064435 -1.569601980075533 0  -2.000000000003871 -0.9746445732264465 0  -1.99999999
[...]
<PointData  Vectors="f_22"> 
<DataArray  type="Float64"  Name="f_22"  NumberOfComponents="3" format="ascii">0.0000000000000000e+00 0.0000000000000000e+00 0.0000000000000000e+00  0.0000000000000000e+00 0.0000000000000000e+00 0.0000000000000000e+00  0.0000000000000000e+00 0.0000000000000000e+00 0.0000000000000000e+00  0.0000000000000000e+00 0.0000000000000000e+00 0.0000000000000000e+00  9.9999995778791206e-01 0.0000000000000000e+00 0.0000000000000000e+00  9.9999995778791206e-01 0.0000000000000000e+00 0.0000000000000000e+00  0.0000000000000000e+00 0.0000000000000000e+00 0.0000000000000000e+00  0.0000000000000000e+00 0.0000000000000000e+00 0.0000000000000000e+00  0.0000000000000000e+00 0.0000000000000000e+00 0.0000000000000000e+00  0.0000000000000000e+00 0.0000000000000000e+00 0.0000000000000000e+00  0.0000000000000000e+00 0.0000000000000000e+00 0.0000000000000000e+00  0.0000000000000000e+00 0.0000000000000000e+00 0.0000000000000000e+00  0.0000000000000000e+00 0.0000000000000000e+00 0.0000000000000000e+00  0.0000000000000000e+00 0.0000000000000000e+00 0.0000000000000000e+00  0.0000000000000000e+00 0.0000000000000000e+00 0.0000000000000000e+00  0.0000000000000000e+00 0.0000000000000000e+00 0.0000000000000000e+00  0.0000000000000000e+00 0.0000000000000000e+00 0.0000000000000000e+00  0.0000000000000000e+00 0.0000000000000000e+00 0.0000000000000000e+00  0.0000000000000000e+00 0.0000000000000000e+00 0.0000000000000000e+00  0.0000000000000000e+00 0.0000000000000000e+00 0.0000000000000000e+00  0.0000000000000000e+00 0.0000000000000000e+00 0.0000000000000000e+00  0.0000000000000000e+00 0.0000000000000000e+00 0.0000000000000000e+00  0.0000000000000000e+00 0.0000000000000000e+00 0.0000000000000000e+00  0.0000000000000000e+00 0.0000000000000000e+00 0.0000000000000000e+00  0.0000000000000000e+00 0.0000000000000000e+00 0.0000000000000000e+00  0.0000000000000000e+00 0.0000000000000000e+00 0.0000000000000000e+00  0.0000000000000000e+00 0.0000000000000000e+00 0.0000000000000000e+00  0.0000000000000000e+00 0.0000000000000000e+00 0.0000000000000000e+00  0.0000000000000000e+00 0.0000000000000000e+00 0.0000000000000000e+00  3.3133117750311447e-01 -3.0083406224336691e-04 0.0000000000000000e+00  5.8641921289551124e-01 -5.1325187542141943e-04 0.0000000000000000e+00  7.3808001943744994e-01 -4.5524469109510236e-04 0.0000000000000000e+00  7.8846804044779006e-01 -2.3827812909197463e-05 0.0000000000000000e+00  7.3803568773452555e-01 4.0436994546528356e-04 0.0000000000000000e+00  5.8634231518328861e-01 5.1211674806925179e-04 0.0000000000000000e+00  3.3131477165452988e-01 2.5957218541470276e-04 0.0000000000000000e+00  0.0000000000000000e+00 0.0000000000000000e+00 0.0000000000000000e+00  0.0000000000000000e+00 0.0000000000000000e+00 0.0000000000000000e+00  0.0000000000000000e+00 0.0000000000000000e+00 0.0000000000000000e+00  0.0000000000000000e+00 0.0000000000000000e+00 0.0000000000000000e+00  0.0000000000000000e+00 0.0000000000000000e+00 0.0000000000000000e+00  0.0000000000000000e+00 0.0000000000000000e+00 0.0000000000000000e+00  0.0000000000000000e+00 0.0000000000000000e+00 0.0000000000000000e+00  0.0000000000000000e+00 0.0000000000000000e+00 0.0000000000000000e+00  0.0000000000000000e+00 0.0000000000000000e+00 0.0000000000000000e+00  0.0000000000000000e+00 0.0000000000000000e+00 0.0000000000000000e+00  0.0000000000000000e+00 0.0000000000000000e+00 0.0000000000000000e+00  0.0000000000000000e+00 0.0000000000000000e+00 0.0000000000000000e+00  0.0000000000000000e+00 0.0000000000000000e+00 0.0000000000000000e+00  0.0000000000000000e+00 0.0000000000000000e+00 0.0000000000000000e+00  0.0000000000000000e+00 0.0000000000000000e+00 0.0000000000000000e+00  0.0000000000000000e+00 0.0000000000000000e+00 0.0000000000000000e+00  0.0000000000000000e+00 0.0000000000000000e+00 0.0000000000000000e+00  0.0000000000000000e+00 0.0000000000000000e+00 0.0000000000000000e+00  0.0000000000000000e+00 0.0000000000000000e+00 0.0000000000000000e+00  0.0000000000000000e+00 0.0000000000000000e+00 0.0000000000000000e+00  0.0000000000000000e+00 0.0000000000000000e+00 0.0000000000000000e+00  0.0000000000000000e+00 0.0000000000000000e+00 0.0000000000000000e+00  0.0000000000000000e+00 0.0000000000000000e+00 0.0000000000000000e+00  3.3003419878644696e-01 -5.7878588478494654e-04 0.0000000000000000e+00  5.8578554496227131e-01 -9.7783881134396833e-04 0.0000000000000000e+00  7.3885205811862431e-01 -7.8514362468914771e-04 0.0000000000000000e+00  7.9030312635525368e-01 -4.5169795631302887e-06 0.0000000000000000e+00  7.3953388232829342e-01 9.0786245948668964e-04 0.0000000000000000e+00  5.8611050281816202e-01 1.0442894552651352e-03 0.0000000000000000e+00  3.3007770754717808e-01 6.2708154393748602e-04 0.0000000000000000e+00  9.9999995778791206e-01 0.0000000000000000e+00 0.0000000000000000e+00  9.9999995778791206e-01 0.0000000000000000e+00 0.0000000000000000e+00  9.9999995778791206e-01 0.0000000000000000e+00 0.0000000000000000e+00  9.9999995778791206e-01 0.0000000000000000e+00 0.0000000000000000e+00  9.9999995778791206e-01 0.0000000000000000e+00 0.0000000000000000e+00  9.9999995778791206e-01 0.0000000000000000e+00 0.0000000000000000e+00  9.9999995778791206e-01 0.0000000000000000e+00 0.0000000000000000e+00  9.9999995778791206e-01 0.0000000000000000e+00 0.0000000000000000e+00  9.9999995778791206e-01 0.0000000000000000e+00 0.0000000000000000e+00  9.9999995778791206e-01 0.0000000000000000e+00 0.0000000000000000e+00  9.9999995778791206e-01 0.0000000000000000e+00 0.0000000000000000e+00  9.9999995778791206e-01 0.0000000000000000e+00 0.0000000000000000e+00  9.9999995778791206e-01 0.0000000000000000e+00 0.0000000000000000e+00  9.9999995778791206e-01 0.0000000000000000e+00 0.0000000000000000e+00  9.9999995778791206e-01 0.0000000000000000e+00 0.0000000000000000e+00  9.9999995778791206e-01 0.0000000000000000e+00 0.0000000000000000e+00  9.9999995778791206e-01 0.0000000000000000e+00 0.0000000000000000e+00  9.9999995778791206e-01 0.0000000000000000e+00 0.0000000000000000e+00  9.9999995778791206e-01 0.0000000000000000e+00 0.0000000000000000e+00  9.9999995778791206e-01 0.0000000000000000e+00 0.0000000000000000e+00  9.9999995778791206e-01 0.0000000000000000e+00 0.0000000000000000e+00  9.9999995778791206e-01 0.0000000000000000e+00 0.0000000000000000e+00  9.9999995778791206e-01 0.0000000000000000e+00 0.0000000000000000e+00  9.9999995778791206e-01 0.0000000000000000e+00 0.0000000000000000e+00  8.5187683562961247e-01 1.6381489823664636e-02 0.0000000000000000e+00  7.8419160357287365e-01 -5.7655657342220758e-03 0.0000000000000000e+00  7.0470142219703824e-01 3.4166071004052792e-02 0.0000000000000000e+00  7.4576045537918489e-01 -5.3441513789604503e-02 0.0000000000000000e+00  8.0634193002226540e-01 1.7686901728200131e-05 0.0000000000000000e+00  7.4210175086019348e-01 -4.9862400581654615e-02 0.0000000000000000e+00  7.7531366352027842e-01 9.7510746324281391e-04 0.0000000000000000e+00  7.9904479412810847e-01 6.1636750724249817e-02 0.0000000000000000e+00  4.2975118478725982e-01 -9.7833183467350607e-02 0.0000000000000000e+00  4.1816483954606087e-01 1.0105952850482025e-01 0.0000000000000000e+00  6.7127605468826235e-01 -2.4315427740813061e-02 0.0000000000000000e+00  6.8768092128520908e-01 4.5910860691719662e-03 0.0000000000000000e+00  4.1524481364542243e-01 9.7260783251272465e-02 0.0000000000000000e+00  3.0532203350586085e-01 -8.7904859119450313e-02 0.0000000000000000e+00  8.4755155779288338e-01 2.6999121397788799e-02 0.0000000000000000e+00  9.4936308463309327e-01 -1.7117056800286336e-02 0.0000000000000000e+00  6.7832274782047652e-01 1.5683995190059453e-02 0.0000000000000000e+00  6.5126030794801226e-01 -3.1941849644602626e-03 0.0000000000000000e+00  6.5391736187838101e-01 -1.0883063828965641e-03 0.0000000000000000e+00  6.3868134489346473e-01 3.8883258250339225e-03 0.0000000000000000e+00  4.7239876127882924e-01 -1.2806553558598974e-02 0.0000000000000000e+00  1.7124965666206060e-01 1.0217963661790665e-01 0.0000000000000000e+00  1.2695240278055181e-01 2.8973108974350962e-02 0.0000000000000000e+00  1.2479592356273796e-01 -2.7818531839202749e-02 0.0000000000000000e+00  1.7032781634895347e-01 -1.0196798862083403e-01 0.0000000000000000e+00  6.4760485091163256e-01 -3.1190135018329492e-03 0.0000000000000000e+00  5.9884927785789455e-01 -1.0075158915442186e-02 0.0000000000000000e+00  6.0168792405988791e-01 9.1469023562953467e-04 0.0000000000000000e+00  4.7104831357271254e-01 3.9114775796936806e-02 0.0000000000000000e+00  7.9062132552058417e-01 -4.1391143264231286e-04 0.0000000000000000e+00  7.4683186350566488e-01 1.0748570709442401e-01 0.0000000000000000e+00  8.3161174234149626e-01 -8.7763716856546437e-02 0.0000000000000000e+00  9.3348756532743682e-01 4.2173153173384742e-02 0.0000000000000000e+00  7.9907028580384332e-01 -8.6590343293244360e-02 0.0000000000000000e+00  4.7137177061460128e-01 1.0249950869650394e-02 0.0000000000000000e+00  8.2437550594868314e-01 -2.0797635927467103e-03 0.0000000000000000e+00  4.8424471257478080e-01 5.8507497663890257e-03 0.0000000000000000e+00  7.8934474416781075e-01 4.4090405180678952e-05 0.0000000000000000e+00  5.1674870320989630e-01 1.4941435352174878e-03 0.0000000000000000e+00  8.0935803483239366e-01 7.8911897712635459e-03 0.0000000000000000e+00  4.2931415572190618e-01 -3.2989834849961729e-02 0.0000000000000000e+00  4.0974360520941211e-01 2.8717906824696417e-02 0.0000000000000000e+00  4.7609992825219655e-01 -3.6716883964762227e-02 0.0000000000000000e+00  8.0814683974839552e-01 -2.5781785441158347e-02 0.0000000000000000e+00  7.9608221046963346e-01 4.3768179069537646e-04 0.0000000000000000e+00  4.2669255021606523e-01 1.7710115262219472e-01 0.0000000000000000e+00  4.8047101151786098e-01 9.3190226218382036e-02 0.0000000000000000e+00  2.3297639917652604e-01 5.2111472303621245e-02 0.0000000000000000e+00  4.5907714919096637e-01 -9.2003332022246864e-02 0.0000000000000000e+00  2.3309701519918299e-01 -5.1857330239377469e-02 0.0000000000000000e+00  4.3051276873866917e-01 -1.7723950968163177e-01 0.0000000000000000e+00  4.7818561866236819e-01 -1.2861335491160710e-03 0.0000000000000000e+00  3.9185916508010027e-01 6.3018213696204528e-02 0.0000000000000000e+00  3.0039921544814541e-01 -4.9667971025985455e-02 0.0000000000000000e+00  9.0898117041404691e-01 1.0857142589509230e-02 0.0000000000000000e+00  4.7284946431300456e-01 -3.8919633163551925e-03 0.0000000000000000e+00  6.8319010791864077e-01 -1.5766014866175501e-01 0.0000000000000000e+00  4.2377743630472864e-01 1.8825732994036941e-02 0.0000000000000000e+00  4.3791264740085240e-01 1.5957054794532000e-03 0.0000000000000000e+00  7.5361535017982595e-01 9.5440062820436516e-02 0.0000000000000000e+00  7.8708700609303828e-01 3.8163660730695962e-03 0.0000000000000000e+00  9.0938244658402345e-01 -1.6029466740821220e-02 0.0000000000000000e+00  9.8613260612560827e-01 9.3525190477256361e-03 0.0000000000000000e+00  7.4302403525946614e-01 -1.6063149445729936e-03 0.0000000000000000e+00  4.3622147370546210e-01 -4.7270169111045328e-04 0.0000000000000000e+00  9.4855044598202209e-01 -3.7981001337079490e-02 0.0000000000000000e+00  6.9947113955782381e-01 -2.2437981538208210e-02 0.0000000000000000e+00  4.0405577827644901e-01 -1.1384340853356659e-02 0.0000000000000000e+00  8.3209043122756210e-01 -1.4451161756633416e-02 0.0000000000000000e+00  6.6022751464152407e-01 1.6615688289723579e-01 0.0000000000000000e+00  8.1940238326875470e-01 1.2509591508213453e-02 0.0000000000000000e+00  9.4945082625786792e-01 1.5963145136575214e-02 0.0000000000000000e+00  3.7959111134187695e-01 -3.3103507449837844e-03 0.0000000000000000e+00  8.7320285953170440e-01 9.2167422251861988e-02 0.0000000000000000e+00  6.6281838243313496e-01 -8.5171440647385244e-03 0.0000000000000000e+00  7.3356374770859767e-01 -4.9807577833421539e-03 0.0000000000000000e+00  6.7732978180626502e-01 1.4873237163993958e-02 0.0000000000000000e+00  6.2287005670745255e-01 -8.4152983170735496e-02 0.0000000000000000e+00  3.7755343256534490e-01 6.9433707958731564e-03 0.0000000000000000e+00  7.5628120771160157e-01 -9.3109521355195360e-02 0.0000000000000000e+00  4.1436806330737380e-01 -1.2175368588326749e-03 0.0000000000000000e+00  3.9668995628458331e-01 1.3255627660311392e-01 0.0000000000000000e+00  4.4492277340024494e-01 -3.9704006360083803e-02 0.0000000000000000e+00  4.4815313308991006e-01 4.0121636592675050e-02 0.0000000000000000e+00  3.9641813999592834e-01 -1.3279033214307906e-01 0.0000000000000000e+00  8.5189476933617703e-01 -6.0474331640609953e-02 0.0000000000000000e+00  7.4011129180301383e-01 9.3084806518387436e-03 0.0000000000000000e+00  7.0691929003977261e-01 4.7039282491362182e-02 0.0000000000000000e+00  8.3420889500300499e-01 -9.4495949997611822e-03 0.0000000000000000e+00  7.5174769565674926e-01 1.2810214312196368e-03 0.0000000000000000e+00  7.3207090340031733e-01 -6.4429323816890744e-04 0.0000000000000000e+00  3.9863833476968868e-01 -1.7032815254997779e-03 0.0000000000000000e+00  6.2046092651098117e-01 -8.3869491434314991e-02 0.0000000000000000e+00  9.9204758303785134e-01 -6.7198501079972885e-03 0.0000000000000000e+00  6.2800234716449943e-01 3.2159968712855022e-02 0.0000000000000000e+00  3.8876326447054510e-01 2.5069334420481505e-03 0.0000000000000000e+00  4.2279346678873486e-01 -6.1366421868186080e-04 0.0000000000000000e+00  3.9290778923870201e-01 4.1425465206184101e-04 0.0000000000000000e+00  4.1556899962853378e-01 1.5850284121499245e-03 0.0000000000000000e+00  7.4817373959009603e-01 4.9612317018788675e-03 0.0000000000000000e+00  6.3890984574016196e-01 9.1625538132273449e-02 0.0000000000000000e+00  7.1651861249356630e-01 6.3194055217711891e-04 0.0000000000000000e+00  1.1350807313067486e-01 -4.3694953297034295e-02 0.0000000000000000e+00  5.5914584804093059e-01 5.9833548443831187e-02 0.0000000000000000e+00  6.9603108721769635e-01 -1.4115710865355123e-02 0.0000000000000000e+00  7.5016688290896760e-01 2.2794194205247001e-03 0.0000000000000000e+00  1.1322315594306212e-01 4.3408076232390222e-02 0.0000000000000000e+00  1.2252647978127950e-02 2.9370764131464916e-02 0.0000000000000000e+00  6.2586248012640464e-03 2.8710012759278473e-02 0.0000000000000000e+00  6.2181935031875952e-03 -2.8674894317719527e-02 0.0000000000000000e+00  3.0910160530882712e-02 -3.4294342747240067e-02 0.0000000000000000e+00  3.7746210231308297e-01 5.2757794663848157e-04 0.0000000000000000e+00  3.2567529062937334e-01 -1.3681890244126483e-02 0.0000000000000000e+00  8.9375499981428186e-01 -2.1790082475364229e-02 0.0000000000000000e+00  7.5710644284528694e-01 -4.3790136970450113e-03 0.0000000000000000e+00  9.4899455333019356e-01 3.3608469931318379e-02 0.0000000000000000e+00  2.2944790837700205e-01 -2.3447330368650279e-02 0.0000000000000000e+00  7.4116670433984888e-01 -1.1761198439282708e-03 0.0000000000000000e+00  3.3106570213264225e-01 2.5601652349648463e-03 0.0000000000000000e+00  7.7405211393513251e-01 -6.9872270777549385e-04 0.0000000000000000e+00  6.7958148952782027e-01 -1.8943860024833983e-01 0.0000000000000000e+00  8.1193524590307364e-01 8.0954224815029882e-02 0.0000000000000000e+00  8.4459114255971823e-01 -3.6503344771931109e-02 0.0000000000000000e+00  3.3939274797920932e-01 -3.5920833064927316e-03 0.0000000000000000e+00  7.4837964331104434e-01 9.3068188249893075e-04 0.0000000000000000e+00  1.2408657442842891e-01 3.4760630864031340e-02 0.0000000000000000e+00  7.6641784723706585e-01 -7.6409370484970375e-03 0.0000000000000000e+00  7.7779763071694774e-01 5.3173100875648527e-02 0.0000000000000000e+00  9.7987819458549685e-01 2.0715756741736275e-02 0.0000000000000000e+00  2.0949905842411792e-01 1.9912739414811507e-02 0.0000000000000000e+00  7.8461432601477266e-01 -1.2285283456138761e-02 0.0000000000000000e+00  9.0249294486766285e-01 -9.8156853448990902e-02 0.0000000000000000e+00  3.2178554005488358e-01 -1.1909765972073915e-02 0.0000000000000000e+00  7.9276540514088956e-01 -3.7160831871457356e-04 0.0000000000000000e+00  9.3792717058478703e-01 -4.4833182566111317e-02 0.0000000000000000e+00  8.2451432563132432e-01 1.5004613336715530e-01 0.0000000000000000e+00  9.3642146392999903e-01 4.5813383982719683e-02 0.0000000000000000e+00  8.2563171225256915e-01 -1.5383336691403407e-01 0.0000000000000000e+00  6.6856009953145290e-01 -4.3544981999667748e-02 0.0000000000000000e+00  1.1006657938128535e-01 -3.5210184639825469e-02 0.0000000000000000e+00  2.3569239519819998e-01 2.7623949802677187e-02 0.0000000000000000e+00  2.7545055315876338e-01 1.5922724070506978e-02 0.0000000000000000e+00  5.5763147643955679e-01 2.3237506164924811e-02 0.0000000000000000e+00  8.0225412188640099e-01 2.3993500011633355e-02 0.0000000000000000e+00  6.3018380640681837e-01 1.5046473680423783e-03 0.0000000000000000e+00  2.8282340032327258e-01 -4.2681362333779026e-03 0.0000000000000000e+00  8.8995717273082331e-01 -6.0477121630376461e-03 0.0000000000000000e+00  6.3455966585666534e-01 -3.7137738785386620e-02 0.0000000000000000e+00  2.4145303185502501e-01 2.1360852071344218e-03 0.0000000000000000e+00  2.0989819749021918e-01 -1.9901817243282927e-02 0.0000000000000000e+00  6.0723700142353343e-01 -1.4344691722140675e-03 0.0000000000000000e+00  3.0680407665592546e-01 9.6364138669420372e-03 0.0000000000000000e+00  7.7111119059707489e-01 2.5552465550513098e-03 0.0000000000000000e+00  6.9093907151044809e-01 1.5973606506183501e-03 0.0000000000000000e+00  5.8437822820960694e-01 6.8086589848031830e-03 0.0000000000000000e+00  2.5423734888501737e-01 5.7790718419658462e-03 0.0000000000000000e+00  7.9400147852024139e-01 8.8144199268851680e-03 0.0000000000000000e+00  7.6362853388272955e-01 1.7835494233546492e-02 0.0000000000000000e+00  4.9839823106622422e-01 -5.2806236175328931e-02 0.0000000000000000e+00  6.4351126828155047e-01 6.5064065779184832e-02 0.0000000000000000e+00  9.5610145377237477e-01 -3.4415378820293142e-02 0.0000000000000000e+00  7.9525197209376730e-01 -9.4302116461996170e-04 0.0000000000000000e+00  7.8420427014834571e-01 -2.2027137313914368e-04 0.0000000000000000e+00  8.0465739230097100e-01 3.1298004695322464e-05 0.0000000000000000e+00  6.7411629138113927e-01 2.3113159530129771e-02 0.0000000000000000e+00  5.1472876183996830e-01 -1.5995470194122541e-01 0.0000000000000000e+00  6.8623620289441778e-01 1.8785191189365086e-01 0.0000000000000000e+00  2.5178215272787663e-01 4.2023940996127336e-04 0.0000000000000000e+00  6.1419458312353226e-01 -3.2425197097545398e-02 0.0000000000000000e+00  5.8912071880784000e-01 1.0879152687625224e-02 0.0000000000000000e+00  6.2175986316978227e-01 -1.6158067423881842e-01 0.0000000000000000e+00  6.2817866350515883e-01 1.5899672571388376e-01 0.0000000000000000e+00  7.9044132130980549e-01 6.4434789665933812e-05 0.0000000000000000e+00  8.1334755819177373e-01 1.2140143759826736e-03 0.0000000000000000e+00  7.5070971893439464e-01 6.8700888635294763e-02 0.0000000000000000e+00  7.4234826758637362e-01 -7.3813297353927290e-02 0.0000000000000000e+00  2.8551664233454876e-01 -6.4350403591349715e-04 0.0000000000000000e+00  5.3893575269866745e-01 3.2204074259517101e-02 0.0000000000000000e+00  5.3892143130306347e-01 -3.2231242882141339e-02 0.0000000000000000e+00  3.1153593565371462e-01 -1.1428705500615004e-01 0.0000000000000000e+00  6.0908215890229100e-01 2.6723819297722515e-03 0.0000000000000000e+00  5.4384707080070815e-01 1.0932513533450926e-01 0.0000000000000000e+00  8.6426208631064749e-01 -2.1509889450376653e-03 0.0000000000000000e+00  5.9161183596278566e-01 5.9367959441691365e-04 0.0000000000000000e+00  6.1309503455212100e-01 -6.2701420591912047e-04 0.0000000000000000e+00  5.9104627407917654e-01 5.2008917496761155e-03 0.0000000000000000e+00  2.4113974276204719e-01 8.1067044068067584e-02 0.0000000000000000e+00  5.1142863655617343e-01 -1.0944775479877607e-01 0.0000000000000000e+00  6.3556650819634741e-01 -7.0800714928036142e-03 0.0000000000000000e+00  6.4371067639147772e-01 -1.5273922843360972e-03 0.0000000000000000e+00  2.5278055630687718e-01 -3.2853584786312592e-04 0.0000000000000000e+00  2.4537202446666406e-01 -3.5352524635545125e-03 0.0000000000000000e+00  8.1577266473457954e-01 -3.3529534245483841e-02 0.