<?xml version="1.0"?>
<VTKFile type="UnstructuredGrid"  version="0.1"  >
<UnstructuredGrid>
<Piece  NumberOfPoints="622" NumberOfCells="1116">
<Points>
<DataArray  type="Float64"  NumberOfComponents="3"  format="ascii">-6 -2 0  -6 2 0  6 2 0  6 -2 0  -2.8 0 0  -1.2 0 0  -5.500000000001853 -2 0  -5.000000000003705 -2 0  -4.500000000005556 -2 0  -4.000000000007409 -2 0  -3.50000000000926 -2 0  -3.000000000011112 -2 0  -2.500000000012963 -2 0  -2.000000000014814 -2 0  -1.500000000016665 -2 0  -1.000000000018516 -2 0  -0.5000000000203677 -2 0  -2.204547655537681e-11 -2 0  0.4999999999796305 -2 0  0.9999999999814779 -2 0  1.499999999983327 -2 0  1.999999999985175 -2 0  2.499999999987029 -2 0  2.999999999988882 -2 0  3.499999999990735 -2 0  3.999999999992589 -2 0  4.49999999999444 -2 0  4.999999999996293 -2 0  5.499999999998147 -2 0  6 -1.500000000001387 0  6 -1.000000000002774 0  6 -0.5000000000041616 0  6 -5.505595979116151e-12 0  6 0.4999999999958384 0  6 0.9999999999972258 0  6 1.499999999998613 0  5.500000000001853 2 0  5.000000000003705 2 0  4.500000000005556 2 0  4.000000000007409 2 0  3.50000000000926 2 0  3.000000000011112 2 0  2.500000000012963 2 0  2.000000000014814 2 0  1.500000000016665 2 0  1.000000000018516 2 0  0.5000000000203677 2 0  2.204547655537681e-11 2 0  -0.4999999999796305 2 0  -0.9999999999814779 2 0  -1.499999999983327 2 0  -1.999999999985175 2 0  -2.499999999987029 2 0  -2.999999999988882 2 0  -3.499999999990735 2 0  -3.999999999992589 2 0  -4.49999999999444 2 0  -4.999999999996293 2 0  -5.499999999998147 2 0  -6 1.500000000001387 0  -6 1.000000000002774 0  -6 0.5000000000041616 0  -6 5.505595979116151e-12 0  -6 -0.4999999999958384 0  -6 -0.9999999999972258 0  -6 -1.499999999998613 0  -2.796147781337886 -0.07841371226233997 0  -2.784628224322852 -0.1560722576115546 0  -2.765552268586196 -0.2322277418021561 0  -2.739103626009626 -0.30614674589063 0  -2.705537011479457 -0.3771173894593519 0  -2.665175689843037 -0.4444561864141836 0  -2.618408362691456 -0.5075146273293722 0  -2.565685424950688 -0.5656854249477874 0  -2.507514627332613 -0.6184083626887972 0  -2.444456186417533 -0.6651756898407991 0  -2.377117389462776 -0.7055370114776264 0  -2.306146745894456 -0.7391036260080417 0  -2.232227741806235 -0.7655522685849585 0  -2.15607225761588 -0.784628224321992 0  -2.078413712266957 -0.7961477813374315 0  -2.000000000003407 -0.7999999999999998 0  -1.921586287739523 -0.7961477813380696 0  -1.843927742389945 -0.7846282243231506 0  -1.767772258198879 -0.7655522685865098 0  -1.693853254109962 -0.7391036260098718 0  -1.622882610540873 -0.7055370114795768 0  -1.555543813585629 -0.6651756898429115 0  -1.49248537267008 -0.6184083626910072 0  -1.434314575051535 -0.5656854249500112 0  -1.381591637310384 -0.5075146273316149 0  -1.334824310158267 -0.4444561864161359 0  -1.294462988521423 -0.3771173894609975 0  -1.260896373990956 -0.3061467458920351 0  -1.234447731414138 -0.2322277418032578 0  -1.215371775677287 -0.156072257612254 0  -1.203852218662147 -0.07841371226267954 0  -1.203852218662115 0.07841371226235888 0  -1.215371775677132 0.156072257611478 0  -1.234447731413795 0.232227741802127 0  -1.260896373990353 0.3061467458905811 0  -1.294462988520456 0.3771173894591898 0  -1.334824310156812 0.444456186413959 0  -1.381591637308413 0.5075146273292139 0  -1.434314575049147 0.5656854249476236 0  -1.492485372667197 0.6184083626886415 0  -1.555543813582104 0.6651756898405565 0  -1.62288261053673 0.7055370114773629 0  -1.693853254105125 0.7391036260078683 0  -1.767772258193396 0.7655522685848468 0  -1.84392774238373 0.7846282243219146 0  -1.921586287732977 0.7961477813374253 0  -1.999999999996558 0.8 0  -2.078413712260516 0.7961477813380661 0  -2.156072257610207 0.7846282243231205 0  -2.232227741801178 0.7655522685864928 0  -2.306146745890059 0.7391036260098632 0  -2.377117389459098 0.7055370114795929 0  -2.444456186414405 0.6651756898428894 0  -2.50751462732998 0.6184083626909587 0  -2.565685424948549 0.5656854249499272 0  -2.61840836268981 0.5075146273313792 0  -2.665175689841831 0.4444561864159886 0  -2.705537011478692 0.3771173894607835 0  -2.739103626009108 0.3061467458918818 0  -2.76555226858589 0.2322277418031643 0  -2.784628224322724 0.1560722576122001 0  -2.796147781337853 0.07841371226267957 0  0.6720367661319522 0.1312687487860887 0  -4.389489086394485 0.3544472233398538 0  -3.816221554046232 -0.6097988664512611 0  -3.552726516474419 0.9342959806851625 0  -0.2536610443052337 0.8162373554653355 0  -0.1843238977799138 -0.6649951410982842 0  -3.613359951620445 0.1086570650978273 0  -3.146954163409593 -1.074378179335012 0  -0.4255266515582625 0.07734891565364931 0  -0.9413731612925856 1.168014724254929 0  -2.947764053183577 1.200029094390044 0  -0.8319852757411681 -1.058626838707328 0  2.675418990747819 -1.137325591670363e-12 0  -2.602010642259726 -1.287560129290477 0  -2.334401622060699 1.335006108940604 0  -1.524718496628401 1.32890816230333 0  -1.369813829148039 -1.26145150481762 0  -3.294065651892671 -0.4630240940010318 0  -2.072749204569071 -1.388981302138359 0  -0.7546165313921411 0.5601792161340381 0  -3.224879719581335 0.4382689715877901 0  -0.7073137361349826 -0.4625305410752652 0  4.326242945813966 0.3262429458150917 0  -3.187880061217201 0.07437712177460168 0  -2.94792024259867 0.7030255657465158 0  -2.678809277907896 0.9152683582887104 0  -4.911626141576894 -0.5700186648601188 0  -2.980647654587299 -0.5685006168686053 0  -2.769438919323564 -0.8202775213660614 0  -1.936950121013948 1.220669938589229 0  -0.8971643766260747 0.2762459428874499 0  -0.8760878018253068 -0.06836412137772707 0  -1.086827485441145 0.6772548942594016 0  -1.31355927028917 0.8808768148414213 0  -1.034266382739347 -0.5912381576649568 0  -1.241594139118264 -0.836771920085274 0  1.667161185638911 -0.6367996576268693 0  1.778189842800902 0.7191719841256095 0  -3.065106827511819 -0.266795371500425 0  3.714311277362231 -0.7275465302492842 0  -1.728329421201519 -1.09954751473283 0  4.870629493137888 -0.7325040699186681 0  -3.024707894719303 0.2567561910603656 0  -4.375540207252226 1.228935704312058 0  -2.272077148001781 -1.086192861256262 0  3.351408248797803 0.9175227128129597 0  -5.141847419540732 0.8091901960109126 0  0.5769368286199241 1.111816231125821 0  0.7411482978492124 -1.079569101289617 0  -1.074013749991219 0.430231207546053 0  -1.04664573441257 -0.3358382377487088 0  -2.439195336951085 0.9224778883059374 0  -2.902607676587358 0.4360473765597399 0  -1.629450174302152 1.035617385691805 0  -2.146859933125513 1.032375363966426 0  2.587625196444542 -0.9999926061845814 0  -2.529286802957126 -0.8830616815739111 0  -1.493798157676768 -0.8794705728517196 0  -1.932158132383022 -1.026681566564148 0  -4.09956359341904 -0.1372485582942864 0  5.055802064425553 1.050933510837308 0  -4.413659685984891 -1.207626391697488 0  -4.961411026474009 0.1201902955685026 0  -3.771151641156835 -1.303594976371997 0  -3.001321503506133 -0.04919177107285733 0  -3.881733605683001 0.5124517634812003 0  -0.1971627317996802 -1.336445372382849 0  -2.742825060181767 0.6732573903735507 0  2.520439429199979 1.129372838786189 0  -1.026326428668429 0.1384273198437734 0  -2.779290004861729 -0.5844691722665721 0  -2.895095740820851 -0.4261289730972082 0  -1.275682076193407 0.6630703172777138 0  0.1045291701958869 0.3433373435296472 0  5.175560481258801 0.0608563229178163 0  -1.211574424201636 -0.5847362589868093 0  -1.85847006217035 1.007917631940711 0  4.152535916385823 1.131901130662082 0  -1.04878257200685 -0.1253529988863012 0  1.432836501626023 0.05634449574318775 0  3.560672936003603 0.01188897172456759 0  -3.351823698389408 -0.1821329582635926 0  -5.145153363200735 -1.259166339382508 0  0.03473693330309885 -0.1724947236036572 0  -4.377830921337186 -0.6172564090242229 0  -0.3943750728122595 1.410897156959435 0  -1.661073679471639 -0.9342065000197183 0  -1.49086536677686 0.8331714487926741 0  -2.584486130952032 0.7871482690034864 0  4.270535884593893 -1.259607924744415 0  -1.757417028085795 -1.505182186951191 0  -3.430586920998477 1.425579221231371 0  -2.917598827418652 -0.2298465409534677 0  -2.328978331116049 -0.9300959620317677 0  -2.148543000691344 -0.9751580214451921 0  1.002654111360038 -0.4521702885594788 0  -4.628651824080903 -0.1127998710567241 0  -2.948904386702482 0.1555943115410545 0  0.4165242577134774 -0.5629432649478633 0  -3.698137692471105 -0.3173027948676715 0  -3.491400684461791 -0.7926319721650269 0  -0.3844454817728994 0.4680628696134375 0  -3.207830713508533 0.9778749990559993 0  3.229909751065535 -1.326302454776001 0  5.330007715336748 -1.312905173261894 0  -2.649214054100534 -0.713314536278899 0  1.342022964818772 -1.328315248672686 0  -2.556460939068198 1.202372762828344 0  -0.3497819755044588 -0.3080427614060888 0  -4.928440909495523 1.387622767511967 0  1.309170811945155 1.337467055109531 0  -1.352031940181449 -0.7151198948590243 0  -0.6132855723904642 0.9519045895123004 0  4.266838388406324 -0.3707357390867402 0  -3.834389788310238 1.371594798941152 0  -1.187890214580146 0.4851427123079557 0  -1.109118888029193 0.3185947354467283 0  0.1837819401738013 1.234799661476361 0  1.108165254659559 0.6237223548284967 0  -0.5266600156584522 -0.8113991260886402 0  -4.643822083543982 0.7834094684931707 0  -1.146235204666366 -0.4027330721405781 0  2.049029845992713 -0.2664662499985428 0  2.002665761665898 -1.328912351029848 0  -1.678783505586872 0.8978832065736417 0  -2.049499525232052 0.9483890761590005 0  -2.229972236535132 0.9181006323151361 0  -3.033763529945482 -1.54240494280775 0  -3.562344364746847 0.5622550957224539 0  -5.524396842903405 -0.2709714867672603 0  -0.9710982764034376 -1.549038578476423 0  3.058819320130555 -0.5375106252795963 0  -4.170365230099585 0.7342553699229977 0  -1.045878746461381 -8.187420622554697e-05 0  -1.864822945411764 -0.9219031104673102 0  -0.6251005091687033 -0.2120650512195049 0  2.317562622406059 0.4886417799113238 0  -0.6674371191466613 0.1483993095055008 0  -2.705757882979874 1.609712312948224 0  
[...]
<PointData  Vectors="f_22"> 
<DataArray  type="Float64"  Name="f_22"  NumberOfComponents="3" format="ascii">0.0000000000000000e+00 0.0000000000000000e+00 0.0000000000000000e+00  0.0000000000000000e+00 0.0000000000000000e+00 0.0000000000000000e+00  0.0000000000000000e+00 0.0000000000000000e+00 0.0000000000000000e+00  0.0000000000000000e+00 0.0000000000000000e+00 0.0000000000000000e+00  9.9999997971695087e-01 0.0000000000000000e+00 0.0000000000000000e+00  9.9999997971695087e-01 0.0000000000000000e+00 0.0000000000000000e+00  0.0000000000000000e+00 0.0000000000000000e+00 0.0000000000000000e+00  0.0000000000000000e+00 0.0000000000000000e+00 0.0000000000000000e+00  0.0000000000000000e+00 0.0000000000000000e+00 0.0000000000000000e+00  0.0000000000000000e+00 0.0000000000000000e+00 0.0000000000000000e+00  0.0000000000000000e+00 0.0000000000000000e+00 0.0000000000000000e+00  0.0000000000000000e+00 0.0000000000000000e+00 0.0000000000000000e+00  0.0000000000000000e+00 0.0000000000000000e+00 0.0000000000000000e+00  0.0000000000000000e+00 0.0000000000000000e+00 0.0000000000000000e+00  0.0000000000000000e+00 0.0000000000000000e+00 0.0000000000000000e+00  0.0000000000000000e+00 0.0000000000000000e+00 0.0000000000000000e+00  0.0000000000000000e+00 0.0000000000000000e+00 0.0000000000000000e+00  0.0000000000000000e+00 0.0000000000000000e+00 0.0000000000000000e+00  0.0000000000000000e+00 0.0000000000000000e+00 0.0000000000000000e+00  0.0000000000000000e+00 0.0000000000000000e+00 0.0000000000000000e+00  0.0000000000000000e+00 0.0000000000000000e+00 0.0000000000000000e+00  0.0000000000000000e+00 0.0000000000000000e+00 0.0000000000000000e+00  0.0000000000000000e+00 0.0000000000000000e+00 0.0000000000000000e+00  0.0000000000000000e+00 0.0000000000000000e+00 0.0000000000000000e+00  0.0000000000000000e+00 0.0000000000000000e+00 0.0000000000000000e+00  0.0000000000000000e+00 0.0000000000000000e+00 0.0000000000000000e+00  0.0000000000000000e+00 0.0000000000000000e+00 0.0000000000000000e+00  0.0000000000000000e+00 0.0000000000000000e+00 0.0000000000000000e+00  0.0000000000000000e+00 0.0000000000000000e+00 0.0000000000000000e+00  1.9512772319618402e-01 -7.5230795045608787e-07 0.0000000000000000e+00  1.9975232919575955e-01 2.2099822877946925e-04 0.0000000000000000e+00  1.9999271287891626e-01 3.7620020722630388e-05 0.0000000000000000e+00  1.9995842717766121e-01 1.2189413614169285e-05 0.0000000000000000e+00  1.9989853288150788e-01 -9.2000681623552038e-06 0.0000000000000000e+00  1.9987143936726651e-01 1.0998627363976752e-04 0.0000000000000000e+00  1.9527605328015635e-01 -1.3832472503810022e-04 0.0000000000000000e+00  0.0000000000000000e+00 0.0000000000000000e+00 0.0000000000000000e+00  0.0000000000000000e+00 0.0000000000000000e+00 0.0000000000000000e+00  0.0000000000000000e+00 0.0000000000000000e+00 0.0000000000000000e+00  0.0000000000000000e+00 0.0000000000000000e+00 0.0000000000000000e+00  0.0000000000000000e+00 0.0000000000000000e+00 0.0000000000000000e+00  0.0000000000000000e+00 0.0000000000000000e+00 0.0000000000000000e+00  0.0000000000000000e+00 0.0000000000000000e+00 0.0000000000000000e+00  0.0000000000000000e+00 0.0000000000000000e+00 0.0000000000000000e+00  0.0000000000000000e+00 0.0000000000000000e+00 0.0000000000000000e+00  0.0000000000000000e+00 0.0000000000000000e+00 0.0000000000000000e+00  0.0000000000000000e+00 0.0000000000000000e+00 0.0000000000000000e+00  0.0000000000000000e+00 0.0000000000000000e+00 0.0000000000000000e+00  0.0000000000000000e+00 0.0000000000000000e+00 0.0000000000000000e+00  0.0000000000000000e+00 0.0000000000000000e+00 0.0000000000000000e+00  0.0000000000000000e+00 0.0000000000000000e+00 0.0000000000000000e+00  0.0000000000000000e+00 0.0000000000000000e+00 0.0000000000000000e+00  0.0000000000000000e+00 0.0000000000000000e+00 0.0000000000000000e+00  0.0000000000000000e+00 0.0000000000000000e+00 0.0000000000000000e+00  0.0000000000000000e+00 0.0000000000000000e+00 0.0000000000000000e+00  0.0000000000000000e+00 0.0000000000000000e+00 0.0000000000000000e+00  0.0000000000000000e+00 0.0000000000000000e+00 0.0000000000000000e+00  0.0000000000000000e+00 0.0000000000000000e+00 0.0000000000000000e+00  0.0000000000000000e+00 0.0000000000000000e+00 0.0000000000000000e+00  1.9300907804979536e-01 -6.5611249243404659e-04 0.0000000000000000e+00  1.9807705910491155e-01 -7.9532256068895024e-04 0.0000000000000000e+00  2.0400225763844804e-01 -8.5414484550564048e-04 0.0000000000000000e+00  2.0689894189006183e-01 4.1280243883025115e-04 0.0000000000000000e+00  2.0474050289260884e-01 5.2106720863792850e-04 0.0000000000000000e+00  1.9873711122189430e-01 9.1666902073511355e-04 0.0000000000000000e+00  1.9281989029218227e-01 6.5278442774461046e-04 0.0000000000000000e+00  9.9999997971695087e-01 0.0000000000000000e+00 0.0000000000000000e+00  9.9999997971695087e-01 0.0000000000000000e+00 0.0000000000000000e+00  9.9999997971695087e-01 0.0000000000000000e+00 0.0000000000000000e+00  9.9999997971695087e-01 0.0000000000000000e+00 0.0000000000000000e+00  9.9999997971695087e-01 0.0000000000000000e+00 0.0000000000000000e+00  9.9999997971695087e-01 0.0000000000000000e+00 0.0000000000000000e+00  9.9999997971695087e-01 0.0000000000000000e+00 0.0000000000000000e+00  9.9999997971695087e-01 0.0000000000000000e+00 0.0000000000000000e+00  9.9999997971695087e-01 0.0000000000000000e+00 0.0000000000000000e+00  9.9999997971695087e-01 0.0000000000000000e+00 0.0000000000000000e+00  9.9999997971695087e-01 0.0000000000000000e+00 0.0000000000000000e+00  9.9999997971695087e-01 0.0000000000000000e+00 0.0000000000000000e+00  9.9999997971695087e-01 0.0000000000000000e+00 0.0000000000000000e+00  9.9999997971695087e-01 0.0000000000000000e+00 0.0000000000000000e+00  9.9999997971695087e-01 0.0000000000000000e+00 0.0000000000000000e+00  9.9999997971695087e-01 0.0000000000000000e+00 0.0000000000000000e+00  9.9999997971695087e-01 0.0000000000000000e+00 0.0000000000000000e+00  9.9999997971695087e-01 0.0000000000000000e+00 0.0000000000000000e+00  9.9999997971695087e-01 0.0000000000000000e+00 0.0000000000000000e+00  9.9999997971695087e-01 0.0000000000000000e+00 0.0000000000000000e+00  9.9999997971695087e-01 0.0000000000000000e+00 0.0000000000000000e+00  9.9999997971695087e-01 0.0000000000000000e+00 0.0000000000000000e+00  9.9999997971695087e-01 0.0000000000000000e+00 0.0000000000000000e+00  9.9999997971695087e-01 0.0000000000000000e+00 0.0000000000000000e+00  9.9999997971695087e-01 0.0000000000000000e+00 0.0000000000000000e+00  9.9999997971695087e-01 0.0000000000000000e+00 0.0000000000000000e+00  9.9999997971695087e-01 0.0000000000000000e+00 0.0000000000000000e+00  9.9999997971695087e-01 0.0000000000000000e+00 0.0000000000000000e+00  9.9999997971695087e-01 0.0000000000000000e+00 0.0000000000000000e+00  9.9999997971695087e-01 0.0000000000000000e+00 0.0000000000000000e+00  9.9999997971695087e-01 0.0000000000000000e+00 0.0000000000000000e+00  9.9999997971695087e-01 0.0000000000000000e+00 0.0000000000000000e+00  9.9999997971695087e-01 0.0000000000000000e+00 0.0000000000000000e+00  9.9999997971695087e-01 0.0000000000000000e+00 0.0000000000000000e+00  9.9999997971695087e-01 0.0000000000000000e+00 0.0000000000000000e+00  9.9999997971695087e-01 0.0000000000000000e+00 0.0000000000000000e+00  9.9999997971695087e-01 0.0000000000000000e+00 0.0000000000000000e+00  9.9999997971695087e-01 0.0000000000000000e+00 0.0000000000000000e+00  9.9999997971695087e-01 0.0000000000000000e+00 0.0000000000000000e+00  9.9999997971695087e-01 0.0000000000000000e+00 0.0000000000000000e+00  9.9999997971695087e-01 0.0000000000000000e+00 0.0000000000000000e+00  9.9999997971695087e-01 0.0000000000000000e+00 0.0000000000000000e+00  9.9999997971695087e-01 0.0000000000000000e+00 0.0000000000000000e+00  9.9999997971695087e-01 0.0000000000000000e+00 0.0000000000000000e+00  9.9999997971695087e-01 0.0000000000000000e+00 0.0000000000000000e+00  9.9999997971695087e-01 0.0000000000000000e+00 0.0000000000000000e+00  9.9999997971695087e-01 0.0000000000000000e+00 0.0000000000000000e+00  9.9999997971695087e-01 0.0000000000000000e+00 0.0000000000000000e+00  9.9999997971695087e-01 0.0000000000000000e+00 0.0000000000000000e+00  9.9999997971695087e-01 0.0000000000000000e+00 0.0000000000000000e+00  9.9999997971695087e-01 0.0000000000000000e+00 0.0000000000000000e+00  9.9999997971695087e-01 0.0000000000000000e+00 0.0000000000000000e+00  9.9999997971695087e-01 0.0000000000000000e+00 0.0000000000000000e+00  9.9999997971695087e-01 0.0000000000000000e+00 0.0000000000000000e+00  9.9999997971695087e-01 0.0000000000000000e+00 0.0000000000000000e+00  9.9999997971695087e-01 0.0000000000000000e+00 0.0000000000000000e+00  9.9999997971695087e-01 0.0000000000000000e+00 0.0000000000000000e+00  9.9999997971695087e-01 0.0000000000000000e+00 0.0000000000000000e+00  9.9999997971695087e-01 0.0000000000000000e+00 0.0000000000000000e+00  9.9999997971695087e-01 0.0000000000000000e+00 0.0000000000000000e+00  9.9999997971695087e-01 0.0000000000000000e+00 0.0000000000000000e+00  9.9999997971695087e-01 0.0000000000000000e+00 0.0000000000000000e+00  3.3370055127359510e-01 3.4597901972910787e-02 0.0000000000000000e+00  2.2591948236401962e-01 -1.8059476530209412e-02 0.0000000000000000e+00  2.3715759625343411e-01 7.8114659599151259e-02 0.0000000000000000e+00  1.7585295203404677e-01 -1.2647477296684792e-01 0.0000000000000000e+00  3.0044940740355702e-01 3.1743564778048133e-01 0.0000000000000000e+00  4.1587297525706263e-01 -2.6681759955303791e-01 0.0000000000000000e+00  3.2951369634442818e-01 -2.7498227701118757e-02 0.0000000000000000e+00  6.7637730766431092e-02 2.1304650739889960e-01 0.0000000000000000e+00  7.8187573406842292e-01 3.0824033967969577e-02 0.0000000000000000e+00  -1.6336147331630577e-01 3.3546715680194850e-01 0.0000000000000000e+00  -5.1547744708265918e-02 -2.1968652876298461e-01 0.0000000000000000e+00  7.5848315767119728e-02 -3.6351123971926491e-01 0.0000000000000000e+00  2.0404851168623353e-01 -4.3804059447599520e-07 0.0000000000000000e+00  -2.5500195352812677e-01 3.0021950231100814e-01 0.0000000000000000e+00  -4.4905422289855124e-01 -3.2517420735206731e-01 0.0000000000000000e+00  -7.0299921656076414e-01 -6.3769344350557755e-02 0.0000000000000000e+00  -5.6590791672750318e-01 -9.9488886244539942e-02 0.0000000000000000e+00  3.3713005036243071e-01 1.9177254198913310e-01 0.0000000000000000e+00  -5.5757865090186531e-01 3.0173925224711912e-01 0.0000000000000000e+00  7.1629046041612832e-01 2.0412643841213879e-01 0.0000000000000000e+00  3.6427538156102524e-01 -2.1763037941399563e-01 0.0000000000000000e+00  7.6491131713672822e-01 -1.6916882154612686e-01 0.0000000000000000e+00  2.0017199756705439e-01 1.1335031348930968e-04 0.0000000000000000e+00  5.1069679298480775e-01 -5.0691647123770812e-02 0.0000000000000000e+00  2.0094052711925639e-01 -4.1551750224941009e-01 0.0000000000000000e+00  -8.6452607809811996e-02 -4.9465450025859420e-01 0.0000000000000000e+00  2.0755724606976234e-01 9.7993336567790967e-03 0.0000000000000000e+00  3.2242064930727554e-01 3.9877171884600859e-01 0.0000000000000000e+00  3.9788548680906290e-02 5.0536014570151799e-01 0.0000000000000000e+00  -5.6785584733244465e-01 -3.3831499031007412e-01 0.0000000000000000e+00  9.1564919896920161e-01 7.9460043502985134e-02 0.0000000000000000e+00  9.4283232004462114e-01 -2.0205430164981029e-02 0.0000000000000000e+00  7.7104779423644099e-01 1.9226721129681770e-01 0.0000000000000000e+00  5.5738276886464133e-01 1.9916269835294487e-01 0.0000000000000000e+00  8.1197985333756795e-01 -1.6765530544851578e-01 0.0000000000000000e+00  6.4491808722760668e-01 -2.1772531134306011e-01 0.0000000000000000e+00  2.0991518097481895e-01 -2.1365750768971802e-02 0.0000000000000000e+00  2.0621432052889263e-01 1.8330900163181677e-02 0.0000000000000000e+00  5.2904976751626986e-01 2.2920827137670427e-01 0.0000000000000000e+00  2.0017581733888712e-01 -6.3090548255092312e-04 0.0000000000000000e+00  -3.6167351938978304e-01 2.1529338714654114e-01 0.0000000000000000e+00  1.9994209171435784e-01 -4.0092642767742306e-05 0.0000000000000000e+00  5.6299810466398958e-01 -2.4798813155223065e-01 0.0000000000000000e+00  1.8312226228150014e-01 -2.4783750974994290e-02 0.0000000000000000e+00  -4.1184549644462781e-01 4.5920276354167683e-01 0.0000000000000000e+00  1.9947788782169712e-01 1.2125956104630713e-03 0.0000000000000000e+00  2.0166113752344328e-01 -6.6763877865684508e-03 0.0000000000000000e+00  1.4086805581494549e-01 1.3608364416833113e-01 0.0000000000000000e+00  1.6219699862907166e-01 -1.0716344923536721e-01 0.0000000000000000e+00  9.1805035094631593e-01 9.4494101919589096e-02 0.0000000000000000e+00  9.4331188910230845e-01 -7.1802232381408371e-02 0.0000000000000000e+00  -2.4943308883758056e-01 -5.6269635345715696e-01 0.0000000000000000e+00  4.7466903079495931e-01 -4.2753858216323209e-01 0.0000000000000000e+00  -1.0591464217727177e-01 -8.3730602458721423e-02 0.0000000000000000e+00  -4.1280485911774156e-01 -4.2495623987376313e-01 0.0000000000000000e+00  1.9898511569988231e-01 -4.7991861515642000e-03 0.0000000000000000e+00  -1.4594411724535028e-01 5.7127007159498389e-01 0.0000000000000000e+00  5.6978585674514604e-01 -7.5722820771296134e-02 0.0000000000000000e+00  -3.0122820441943388e-01 2.9940503569801619e-01 0.0000000000000000e+00  2.5211240840872812e-01 1.3157991116237231e-02 0.0000000000000000e+00  1.9904953061733124e-01 3.1295354168696670e-04 0.0000000000000000e+00  1.8471789600720689e-01 2.4160696740124853e-02 0.0000000000000000e+00  2.1256166571898663e-01 -1.9938025762508559e-03 0.0000000000000000e+00  1.4319332555699471e-01 5.8161224588534073e-02 0.0000000000000000e+00  6.8128096802043703e-01 4.3545964551480486e-02 0.0000000000000000e+00  2.4555682867670547e-01 -6.2311772162544563e-02 0.0000000000000000e+00  -1.3267360450164825e-01 -2.6170683919229271e-01 0.0000000000000000e+00  1.7706006179559000e-01 -5.8670580451744436e-01 0.0000000000000000e+00  1.9586590394211487e-01 5.4826593744233629e-03 0.0000000000000000e+00  9.7504089597914889e-01 2.6794319515850179e-02 0.0000000000000000e+00  2.9900509301498124e-01 5.7545006534541032e-01 0.0000000000000000e+00  4.9630588683596283e-01 4.2021639265629379e-01 0.0000000000000000e+00  8.7830188833467049e-01 1.1583066921380061e-01 0.0000000000000000e+00  4.9760040268627220e-01 1.4568001991555798e-01 0.0000000000000000e+00  1.9999423411328501e-01 3.1239865705176663e-05 0.0000000000000000e+00  8.9429632221010724e-01 -1.0730054566478717e-01 0.0000000000000000e+00  -1.9934033825739797e-01 -2.3386003397408422e-01 0.0000000000000000e+00  1.9859775085185455e-01 3.4402740316366842e-04 0.0000000000000000e+00  9.8075016510434943e-01 -2.2661996021645578e-02 0.0000000000000000e+00  2.3670823169165850e-01 3.6256009657332075e-03 0.0000000000000000e+00  2.0089441041838679e-01 -3.7925847508965710e-05 0.0000000000000000e+00  4.0741581997386256e-01 8.0353199178162207e-02 0.0000000000000000e+00  1.9384456154967883e-01 5.9557246771877650e-03 0.0000000000000000e+00  5.7505300631205603e-01 -7.1468024195397994e-02 0.0000000000000000e+00  2.1512956352804716e-01 2.7830199164751934e-02 0.0000000000000000e+00  -2.2900859134549489e-01 2.7261071749722571e-01 0.0000000000000000e+00  2.5214650144340017e-01 3.5003502785680152e-02 0.0000000000000000e+00  7.3673538991062937e-01 8.3109454076958883e-02 0.0000000000000000e+00  -5.9599960944698632e-02 -6.4102924843856524e-01 0.0000000000000000e+00  1.9835160209949357e-01 -2.6631631550017487e-04 0.0000000000000000e+00  -7.2294570769874622e-01 1.9410893610041827e-01 0.0000000000000000e+00  8.1849002155403347e-02 -6.7022983300803071e-02 0.0000000000000000e+00  6.7538834469339892e-01 2.9334218543478902e-01 0.0000000000000000e+00  -3.1992889556467580e-01 5.3505283369639256e-01 0.0000000000000000e+00  -3.6319589704186828e-01 4.2027136916633506e-01 0.0000000000000000e+00  2.4997469661609628e-01 -5.4743081198879669e-02 0.0000000000000000e+00  2.2092937123012357e-01 4.1780145662011995e-03 0.0000000000000000e+00  7.0146256341207469e-01 -1.8750965404210609e-01 0.0000000000000000e+00  2.9729885951342555e-01 -1.7902793297531630e-01 0.0000000000000000e+00  2.9159709949498502e-01 6.3284532955229955e-02 0.0000000000000000e+00  2.0656313120211703e-01 1.4856831643303139e-01 0.0000000000000000e+00  6.3822036167392926e-01 1.8979165007147450e-01 0.0000000000000000e+00  1.1553651290599072e-01 -2.1824843545545208e-01 0.0000000000000000e+00  1.9731107291018732e-01 -1.2090121341897643e-03 0.0000000000000000e+00  1.9824667425778308e-01 -5.6526269078298062e-06 0.0000000000000000e+00  5.9542316408775907e-02 6.5414640075495756e-01 0.0000000000000000e+00  1.7138763087203671e-01 -3.1002537807070824e-02 0.0000000000000000e+00  -2.7561897023469190e-01 -3.5443716950549248e-01 0.0000000000000000e+00  6.9700985138829807e-01 -1.2618415267315888e-01 0.0000000000000000e+00  1.8927397965068729e-01 -7.8641369001274820e-03 0.0000000000000000e+00  1.6839093637497088e-01 3.2940945224980589e-02 0.0000000000000000e+00  8.8520006587676237e-01 -1.0686959140810567e-01 0.0000000000000000e+00  2.1746555961578665e-01 3.4745321499841680e-01 0.0000000000000000e+00  2.0021790650001922e-01 -1.9414336107199202e-04 0.0000000000000000e+00  1.4349871883229209e-01 -4.5974799652118592e-02 0.0000000000000000e+00  9.3400071668616202e-01 7.7861224031189544e-02 0.0000000000000000e+00  9.6441979377990794e-01 5.2098837627354816e-02 0.0000000000000000e+00  3.8897843571507926e-02 2.0821255052104157e-01 0.0000000000000000e+00  2.2944626299303353e-01 5.4837712490812422e-02 0.0000000000000000e+00  3.8383592938111544e-01 -3.0902025966541535e-01 0.0000000000000000e+00  2.0450208990514004e-01 -1.8664602317649662e-02 0.0000000000000000e+00  9.5164659802358198e-01 -6.4837634825151438e-02 0.0000000000000000e+00  2.1100252179407980e-01 -5.5180420523539475e-03 0.0000000000000000e+00  1.9009304536007426e-01 -9.7784618629903550e-03 0.0000000000000000e+00  4.1540137843193320e-01 -1.5920134158053080e-02 0.0000000000000000e+00  -2.6784709675949042e-01 -3.0978921366302176e-01 0.0000000000000000e+00  -3.4873540709071194e-01 -4.8001871116011396e-01 0.0000000000000000e+00  -2.7384753922386467e-02 7.1937445654863583e-02 0.0000000000000000e+00  2.6422108790236637e-01 -1.2161401535367759e-01 0.0000000000000000e+00  2.0620745802751336e-01 9.3893789507098699e-04 0.0000000000000000e+00  -5.7734172473476197e-01 -1.6071798234141629e-01 0.0000000000000000e+00  2.0115589030279299e-01 -1.6913489010140302e-03 0.0000000000000000e+00  2.1206098806224447e-01 -4.3471560294361777e-02 0.0000000000000000e+00  9.8437705611085269e-01 -7.7084446139545591e-05 0.0000000000000000e+00  8.5101567015304427e-02 1.2314679416625002e-01 0.0000000000000000e+00  8.3573648370096054e-01 -7.8442306035407680e-02 0.0000000000000000e+00  2.0509785455546492e-01 5.8469542251266106e-03 0.0000000000000000e+00  8.6702765819060523e-01 5.3338542318414367e-02 0.0000000000000000e+00  -1.4933148997757348e-01 -7.9941339015603199e-02 0.0000000000000000e+00  1.8487140071599170e-01 1.0050776633354606e-02 0.0000000000000000e+00  3.4208097522979070e-01 -5.7829910656412786e-01 0.0000000000000000e+00  6.2583963995435066e-01 -4.2596074714380860e-01 0.0000000000000000e+00  8.8427786986198265e-01 -8.7682461380039017e-02 0.0000000000000000e+00  2.2027292884677799e-01 2.5209600110565583e-01 0.0000000000000000e+00  1.9520888905623651e-01 -1.3021503431388530e-03 0.0000000000000000e+00  6.6950055035924369e-02 -2.5728023590935961e-01 0.0000000000000000e+00  -6.8121335299181607e-01 8.1720828415622199e-02 0.0000000000000000e+00  2.3179635827025638e-01 -2.5142202058670682e-01 0.0000000000000000e+00  -6.1286986858270875e-01 -1.1688474601118969e-01 0.0000000000000000e+00  2.7000577583750729e-01 -1.7611070257573736e-02 0.0000000000000000e+00  8.7542244235947808e-01 1.0533698625650037e-01 0.0000000000000000e+00  8.2240198551043431e-01 1.2648875231140438e-01 0.0000000000000000e+00  5.7046904816012700e-01 4.1855606396414241e-01 0.0000000000000000e+00  4.7562985820995896e-01 3.1227828425208332e-01 0.0000000000000000e+00  9.8414652435757732e-01 -2.83674217