<?xml version="1.0"?>
<VTKFile type="UnstructuredGrid"  version="0.1"  >
<UnstructuredGrid>
<Piece  NumberOfPoints="622" NumberOfCells="1116">
<Points>
<DataArray  type="Float64"  NumberOfComponents="3"  format="ascii">-6 -2 0  -6 2 0  6 2 0  6 -2 0  -2.8 0 0  -1.2 0 0  -5.500000000001853 -2 0  -5.000000000003705 -2 0  -4.500000000005556 -2 0  -4.000000000007409 -2 0  -3.50000000000926 -2 0  -3.000000000011112 -2 0  -2.500000000012963 -2 0  -2.000000000014814 -2 0  -1.500000000016665 -2 0  -1.000000000018516 -2 0  -0.5000000000203677 -2 0  -2.204547655537681e-11 -2 0  0.4999999999796305 -2 0  0.9999999999814779 -2 0  1.499999999983327 -2 0  1.999999999985175 -2 0  2.499999999987029 -2 0  2.999999999988882 -2 0  3.499999999990735 -2 0  3.999999999992589 -2 0  4.49999999999444 -2 0  4.999999999996293 -2 0  5.499999999998147 -2 0  6 -1.500000000001387 0  6 -1.000000000002774 0  6 -0.5000000000041616 0  6 -5.505595979116151e-12 0  6 0.4999999999958384 0  6 0.9999999999972258 0  6 1.499999999998613 0  5.500000000001853 2 0  5.000000000003705 2 0  4.500000000005556 2 0  4.000000000007409 2 0  3.50000000000926 2 0  3.000000000011112 2 0  2.500000000012963 2 0  2.000000000014814 2 0  1.500000000016665 2 0  1.000000000018516 2 0  0.5000000000203677 2 0  2.204547655537681e-11 2 0  -0.4999999999796305 2 0  -0.9999999999814779 2 0  -1.499999999983327 2 0  -1.999999999985175 2 0  -2.499999999987029 2 0  -2.999999999988882 2 0  -3.499999999990735 2 0  -3.999999999992589 2 0  -4.49999999999444 2 0  -4.999999999996293 2 0  -5.499999999998147 2 0  -6 1.500000000001387 0  -6 1.000000000002774 0  -6 0.5000000000041616 0  -6 5.505595979116151e-12 0  -6 -0.4999999999958384 0  -6 -0.9999999999972258 0  -6 -1.499999999998613 0  -2.796147781337886 -0.07841371226233997 0  -2.784628224322852 -0.1560722576115546 0  -2.765552268586196 -0.2322277418021561 0  -2.739103626009626 -0.30614674589063 0  -2.705537011479457 -0.3771173894593519 0  -2.665175689843037 -0.4444561864141836 0  -2.618408362691456 -0.5075146273293722 0  -2.565685424950688 -0.5656854249477874 0  -2.507514627332613 -0.6184083626887972 0  -2.444456186417533 -0.6651756898407991 0  -2.377117389462776 -0.7055370114776264 0  -2.306146745894456 -0.7391036260080417 0  -2.232227741806235 -0.7655522685849585 0  -2.15607225761588 -0.784628224321992 0  -2.078413712266957 -0.7961477813374315 0  -2.000000000003407 -0.7999999999999998 0  -1.921586287739523 -0.7961477813380696 0  -1.843927742389945 -0.7846282243231506 0  -1.767772258198879 -0.7655522685865098 0  -1.693853254109962 -0.7391036260098718 0  -1.622882610540873 -0.7055370114795768 0  -1.555543813585629 -0.6651756898429115 0  -1.49248537267008 -0.6184083626910072 0  -1.434314575051535 -0.5656854249500112 0  -1.381591637310384 -0.5075146273316149 0  -1.334824310158267 -0.4444561864161359 0  -1.294462988521423 -0.3771173894609975 0  -1.260896373990956 -0.3061467458920351 0  -1.234447731414138 -0.2322277418032578 0  -1.215371775677287 -0.156072257612254 0  -1.203852218662147 -0.07841371226267954 0  -1.203852218662115 0.07841371226235888 0  -1.215371775677132 0.156072257611478 0  -1.234447731413795 0.232227741802127 0  -1.260896373990353 0.3061467458905811 0  -1.294462988520456 0.3771173894591898 0  -1.334824310156812 0.444456186413959 0  -1.381591637308413 0.5075146273292139 0  -1.434314575049147 0.5656854249476236 0  -1.492485372667197 0.6184083626886415 0  -1.555543813582104 0.6651756898405565 0  -1.62288261053673 0.7055370114773629 0  -1.693853254105125 0.7391036260078683 0  -1.767772258193396 0.7655522685848468 0  -1.84392774238373 0.7846282243219146 0  -1.921586287732977 0.7961477813374253 0  -1.999999999996558 0.8 0  -2.078413712260516 0.7961477813380661 0  -2.156072257610207 0.7846282243231205 0  -2.232227741801178 0.7655522685864928 0  -2.306146745890059 0.7391036260098632 0  -2.377117389459098 0.7055370114795929 0  -2.444456186414405 0.6651756898428894 0  -2.50751462732998 0.6184083626909587 0  -2.565685424948549 0.5656854249499272 0  -2.61840836268981 0.5075146273313792 0  -2.665175689841831 0.4444561864159886 0  -2.705537011478692 0.3771173894607835 0  -2.739103626009108 0.3061467458918818 0  -2.76555226858589 0.2322277418031643 0  -2.784628224322724 0.1560722576122001 0  -2.796147781337853 0.07841371226267957 0  0.6720367661319522 0.1312687487860887 0  -4.389489086394485 0.3544472233398538 0  -3.816221554046232 -0.6097988664512611 0  -3.552726516474419 0.9342959806851625 0  -0.2536610443052337 0.8162373554653355 0  -0.1843238977799138 -0.6649951410982842 0  -3.613359951620445 0.1086570650978273 0  -3.146954163409593 -1.074378179335012 0  -0.4255266515582625 0.07734891565364931 0  -0.9413731612925856 1.168014724254929 0  -2.947764053183577 1.200029094390044 0  -0.8319852757411681 -1.058626838707328 0  2.675418990747819 -1.137325591670363e-12 0  -2.602010642259726 -1.287560129290477 0  -2.334401622060699 1.335006108940604 0  -1.524718496628401 1.32890816230333 0  -1.369813829148039 -1.26145150481762 0  -3.294065651892671 -0.4630240940010318 0  -2.072749204569071 -1.388981302138359 0  -0.7546165313921411 0.5601792161340381 0  -3.224879719581335 0.4382689715877901 0  -0.7073137361349826 -0.4625305410752652 0  4.326242945813966 0.3262429458150917 0  -3.187880061217201 0.07437712177460168 0  -2.94792024259867 0.7030255657465158 0  -2.678809277907896 0.9152683582887104 0  -4.911626141576894 -0.5700186648601188 0  -2.980647654587299 -0.5685006168686053 0  -2.769438919323564 -0.8202775213660614 0  -1.936950121013948 1.220669938589229 0  -0.8971643766260747 0.2762459428874499 0  -0.8760878018253068 -0.06836412137772707 0  -1.086827485441145 0.6772548942594016 0  -1.31355927028917 0.8808768148414213 0  -1.034266382739347 -0.5912381576649568 0  -1.241594139118264 -0.836771920085274 0  1.667161185638911 -0.6367996576268693 0  1.778189842800902 0.7191719841256095 0  -3.065106827511819 -0.266795371500425 0  3.714311277362231 -0.7275465302492842 0  -1.728329421201519 -1.09954751473283 0  4.870629493137888 -0.7325040699186681 0  -3.024707894719303 0.2567561910603656 0  -4.375540207252226 1.228935704312058 0  -2.272077148001781 -1.086192861256262 0  3.351408248797803 0.9175227128129597 0  -5.141847419540732 0.8091901960109126 0  0.5769368286199241 1.111816231125821 0  0.7411482978492124 -1.079569101289617 0  -1.074013749991219 0.430231207546053 0  -1.04664573441257 -0.3358382377487088 0  -2.439195336951085 0.9224778883059374 0  -2.902607676587358 0.4360473765597399 0  -1.629450174302152 1.035617385691805 0  -2.146859933125513 1.032375363966426 0  2.587625196444542 -0.9999926061845814 0  -2.529286802957126 -0.8830616815739111 0  -1.493798157676768 -0.8794705728517196 0  -1.932158132383022 -1.026681566564148 0  -4.09956359341904 -0.1372485582942864 0  5.055802064425553 1.050933510837308 0  -4.413659685984891 -1.207626391697488 0  -4.961411026474009 0.1201902955685026 0  -3.771151641156835 -1.303594976371997 0  -3.001321503506133 -0.04919177107285733 0  -3.881733605683001 0.5124517634812003 0  -0.1971627317996802 -1.336445372382849 0  -2.742825060181767 0.6732573903735507 0  2.520439429199979 1.129372838786189 0  -1.026326428668429 0.1384273198437734 0  -2.779290004861729 -0.5844691722665721 0  -2.895095740820851 -0.4261289730972082 0  -1.275682076193407 0.6630703172777138 0  0.1045291701958869 0.3433373435296472 0  5.175560481258801 0.0608563229178163 0  -1.211574424201636 -0.5847362589868093 0  -1.85847006217035 1.007917631940711 0  4.152535916385823 1.131901130662082 0  -1.04878257200685 -0.1253529988863012 0  1.432836501626023 0.05634449574318775 0  3.560672936003603 0.01188897172456759 0  -3.351823698389408 -0.1821329582635926 0  -5.145153363200735 -1.259166339382508 0  0.03473693330309885 -0.1724947236036572 0  -4.377830921337186 -0.6172564090242229 0  -0.3943750728122595 1.410897156959435 0  -1.661073679471639 -0.9342065000197183 0  -1.49086536677686 0.8331714487926741 0  -2.584486130952032 0.7871482690034864 0  4.270535884593893 -1.259607924744415 0  -1.757417028085795 -1.505182186951191 0  -3.430586920998477 1.425579221231371 0  -2.917598827418652 -0.2298465409534677 0  -2.328978331116049 -0.9300959620317677 0  -2.148543000691344 -0.9751580214451921 0  1.002654111360038 -0.4521702885594788 0  -4.628651824080903 -0.1127998710567241 0  -2.948904386702482 0.1555943115410545 0  0.4165242577134774 -0.5629432649478633 0  -3.698137692471105 -0.3173027948676715 0  -3.491400684461791 -0.7926319721650269 0  -0.3844454817728994 0.4680628696134375 0  -3.207830713508533 0.9778749990559993 0  3.229909751065535 -1.326302454776001 0  5.330007715336748 -1.312905173261894 0  -2.649214054100534 -0.713314536278899 0  1.342022964818772 -1.328315248672686 0  -2.556460939068198 1.202372762828344 0  -0.3497819755044588 -0.3080427614060888 0  -4.928440909495523 1.387622767511967 0  1.309170811945155 1.337467055109531 0  -1.352031940181449 -0.7151198948590243 0  -0.6132855723904642 0.9519045895123004 0  4.266838388406324 -0.3707357390867402 0  -3.834389788310238 1.371594798941152 0  -1.187890214580146 0.4851427123079557 0  -1.109118888029193 0.3185947354467283 0  0.1837819401738013 1.234799661476361 0  1.108165254659559 0.6237223548284967 0  -0.5266600156584522 -0.8113991260886402 0  -4.643822083543982 0.7834094684931707 0  -1.146235204666366 -0.4027330721405781 0  2.049029845992713 -0.2664662499985428 0  2.002665761665898 -1.328912351029848 0  -1.678783505586872 0.8978832065736417 0  -2.049499525232052 0.9483890761590005 0  -2.229972236535132 0.9181006323151361 0  -3.033763529945482 -1.54240494280775 0  -3.562344364746847 0.5622550957224539 0  -5.524396842903405 -0.2709714867672603 0  -0.9710982764034376 -1.549038578476423 0  3.058819320130555 -0.5375106252795963 0  -4.170365230099585 0.7342553699229977 0  -1.045878746461381 -8.187420622554697e-05 0  -1.864822945411764 -0.9219031104673102 0  -0.6251005091687033 -0.2120650512195049 0  2.317562622406059 0.4886417799113238 0  -0.6674371191466613 0.1483993095055008 0  -2.705757882979874 1.609712312948224 0  
[...]
<PointData  Vectors="f_22"> 
<DataArray  type="Float64"  Name="f_22"  NumberOfComponents="3" format="ascii">0.0000000000000000e+00 0.0000000000000000e+00 0.0000000000000000e+00  0.0000000000000000e+00 0.0000000000000000e+00 0.0000000000000000e+00  0.0000000000000000e+00 0.0000000000000000e+00 0.0000000000000000e+00  0.0000000000000000e+00 0.0000000000000000e+00 0.0000000000000000e+00  9.9999997764608561e-01 0.0000000000000000e+00 0.0000000000000000e+00  9.9999997764608561e-01 0.0000000000000000e+00 0.0000000000000000e+00  0.0000000000000000e+00 0.0000000000000000e+00 0.0000000000000000e+00  0.0000000000000000e+00 0.0000000000000000e+00 0.0000000000000000e+00  0.0000000000000000e+00 0.0000000000000000e+00 0.0000000000000000e+00  0.0000000000000000e+00 0.0000000000000000e+00 0.0000000000000000e+00  0.0000000000000000e+00 0.0000000000000000e+00 0.0000000000000000e+00  0.0000000000000000e+00 0.0000000000000000e+00 0.0000000000000000e+00  0.0000000000000000e+00 0.0000000000000000e+00 0.0000000000000000e+00  0.0000000000000000e+00 0.0000000000000000e+00 0.0000000000000000e+00  0.0000000000000000e+00 0.0000000000000000e+00 0.0000000000000000e+00  0.0000000000000000e+00 0.0000000000000000e+00 0.0000000000000000e+00  0.0000000000000000e+00 0.0000000000000000e+00 0.0000000000000000e+00  0.0000000000000000e+00 0.0000000000000000e+00 0.0000000000000000e+00  0.0000000000000000e+00 0.0000000000000000e+00 0.0000000000000000e+00  0.0000000000000000e+00 0.0000000000000000e+00 0.0000000000000000e+00  0.0000000000000000e+00 0.0000000000000000e+00 0.0000000000000000e+00  0.0000000000000000e+00 0.0000000000000000e+00 0.0000000000000000e+00  0.0000000000000000e+00 0.0000000000000000e+00 0.0000000000000000e+00  0.0000000000000000e+00 0.0000000000000000e+00 0.0000000000000000e+00  0.0000000000000000e+00 0.0000000000000000e+00 0.0000000000000000e+00  0.0000000000000000e+00 0.0000000000000000e+00 0.0000000000000000e+00  0.0000000000000000e+00 0.0000000000000000e+00 0.0000000000000000e+00  0.0000000000000000e+00 0.0000000000000000e+00 0.0000000000000000e+00  0.0000000000000000e+00 0.0000000000000000e+00 0.0000000000000000e+00  2.5568481915220437e-01 2.0307218041419253e-04 0.0000000000000000e+00  2.7216880383557651e-01 1.8819157004694155e-04 0.0000000000000000e+00  2.7318853488414874e-01 -9.7308854481029814e-06 0.0000000000000000e+00  2.7324293469990085e-01 4.5154118059406220e-06 0.0000000000000000e+00  2.7318692321588633e-01 -3.6319621585397034e-06 0.0000000000000000e+00  2.7277288463205918e-01 2.0199677841405196e-04 0.0000000000000000e+00  2.5645046848605019e-01 -4.2851074052089065e-04 0.0000000000000000e+00  0.0000000000000000e+00 0.0000000000000000e+00 0.0000000000000000e+00  0.0000000000000000e+00 0.0000000000000000e+00 0.0000000000000000e+00  0.0000000000000000e+00 0.0000000000000000e+00 0.0000000000000000e+00  0.0000000000000000e+00 0.0000000000000000e+00 0.0000000000000000e+00  0.0000000000000000e+00 0.0000000000000000e+00 0.0000000000000000e+00  0.0000000000000000e+00 0.0000000000000000e+00 0.0000000000000000e+00  0.0000000000000000e+00 0.0000000000000000e+00 0.0000000000000000e+00  0.0000000000000000e+00 0.0000000000000000e+00 0.0000000000000000e+00  0.0000000000000000e+00 0.0000000000000000e+00 0.0000000000000000e+00  0.0000000000000000e+00 0.0000000000000000e+00 0.0000000000000000e+00  0.0000000000000000e+00 0.0000000000000000e+00 0.0000000000000000e+00  0.0000000000000000e+00 0.0000000000000000e+00 0.0000000000000000e+00  0.0000000000000000e+00 0.0000000000000000e+00 0.0000000000000000e+00  0.0000000000000000e+00 0.0000000000000000e+00 0.0000000000000000e+00  0.0000000000000000e+00 0.0000000000000000e+00 0.0000000000000000e+00  0.0000000000000000e+00 0.0000000000000000e+00 0.0000000000000000e+00  0.0000000000000000e+00 0.0000000000000000e+00 0.0000000000000000e+00  0.0000000000000000e+00 0.0000000000000000e+00 0.0000000000000000e+00  0.0000000000000000e+00 0.0000000000000000e+00 0.0000000000000000e+00  0.0000000000000000e+00 0.0000000000000000e+00 0.0000000000000000e+00  0.0000000000000000e+00 0.0000000000000000e+00 0.0000000000000000e+00  0.0000000000000000e+00 0.0000000000000000e+00 0.0000000000000000e+00  0.0000000000000000e+00 0.0000000000000000e+00 0.0000000000000000e+00  2.5142072248305769e-01 -8.9228515959317129e-04 0.0000000000000000e+00  2.7047992580930968e-01 -9.4688622606624599e-04 0.0000000000000000e+00  2.7809579727233941e-01 -1.1127474714456521e-03 0.0000000000000000e+00  2.8181420277809061e-01 7.1714178058162356e-04 0.0000000000000000e+00  2.7877307712852406e-01 5.5621806005956738e-04 0.0000000000000000e+00  2.7112831620948746e-01 9.6841359955434714e-04 0.0000000000000000e+00  2.5100663935774181e-01 7.6746429843445470e-04 0.0000000000000000e+00  9.9999997764608561e-01 0.0000000000000000e+00 0.0000000000000000e+00  9.9999997764608561e-01 0.0000000000000000e+00 0.0000000000000000e+00  9.9999997764608561e-01 0.0000000000000000e+00 0.0000000000000000e+00  9.9999997764608561e-01 0.0000000000000000e+00 0.0000000000000000e+00  9.9999997764608561e-01 0.0000000000000000e+00 0.0000000000000000e+00  9.9999997764608561e-01 0.0000000000000000e+00 0.0000000000000000e+00  9.9999997764608561e-01 0.0000000000000000e+00 0.0000000000000000e+00  9.9999997764608561e-01 0.0000000000000000e+00 0.0000000000000000e+00  9.9999997764608561e-01 0.0000000000000000e+00 0.0000000000000000e+00  9.9999997764608561e-01 0.0000000000000000e+00 0.0000000000000000e+00  9.9999997764608561e-01 0.0000000000000000e+00 0.0000000000000000e+00  9.9999997764608561e-01 0.0000000000000000e+00 0.0000000000000000e+00  9.9999997764608561e-01 0.0000000000000000e+00 0.0000000000000000e+00  9.9999997764608561e-01 0.0000000000000000e+00 0.0000000000000000e+00  9.9999997764608561e-01 0.0000000000000000e+00 0.0000000000000000e+00  9.9999997764608561e-01 0.0000000000000000e+00 0.0000000000000000e+00  9.9999997764608561e-01 0.0000000000000000e+00 0.0000000000000000e+00  9.9999997764608561e-01 0.0000000000000000e+00 0.0000000000000000e+00  9.9999997764608561e-01 0.0000000000000000e+00 0.0000000000000000e+00  9.9999997764608561e-01 0.0000000000000000e+00 0.0000000000000000e+00  9.9999997764608561e-01 0.0000000000000000e+00 0.0000000000000000e+00  9.9999997764608561e-01 0.0000000000000000e+00 0.0000000000000000e+00  9.9999997764608561e-01 0.0000000000000000e+00 0.0000000000000000e+00  9.9999997764608561e-01 0.0000000000000000e+00 0.0000000000000000e+00  9.9999997764608561e-01 0.0000000000000000e+00 0.0000000000000000e+00  9.9999997764608561e-01 0.0000000000000000e+00 0.0000000000000000e+00  9.9999997764608561e-01 0.0000000000000000e+00 0.0000000000000000e+00  9.9999997764608561e-01 0.0000000000000000e+00 0.0000000000000000e+00  9.9999997764608561e-01 0.0000000000000000e+00 0.0000000000000000e+00  9.9999997764608561e-01 0.0000000000000000e+00 0.0000000000000000e+00  9.9999997764608561e-01 0.0000000000000000e+00 0.0000000000000000e+00  9.9999997764608561e-01 0.0000000000000000e+00 0.0000000000000000e+00  9.9999997764608561e-01 0.0000000000000000e+00 0.0000000000000000e+00  9.9999997764608561e-01 0.0000000000000000e+00 0.0000000000000000e+00  9.9999997764608561e-01 0.0000000000000000e+00 0.0000000000000000e+00  9.9999997764608561e-01 0.0000000000000000e+00 0.0000000000000000e+00  9.9999997764608561e-01 0.0000000000000000e+00 0.0000000000000000e+00  9.9999997764608561e-01 0.0000000000000000e+00 0.0000000000000000e+00  9.9999997764608561e-01 0.0000000000000000e+00 0.0000000000000000e+00  9.9999997764608561e-01 0.0000000000000000e+00 0.0000000000000000e+00  9.9999997764608561e-01 0.0000000000000000e+00 0.0000000000000000e+00  9.9999997764608561e-01 0.0000000000000000e+00 0.0000000000000000e+00  9.9999997764608561e-01 0.0000000000000000e+00 0.0000000000000000e+00  9.9999997764608561e-01 0.0000000000000000e+00 0.0000000000000000e+00  9.9999997764608561e-01 0.0000000000000000e+00 0.0000000000000000e+00  9.9999997764608561e-01 0.0000000000000000e+00 0.0000000000000000e+00  9.9999997764608561e-01 0.0000000000000000e+00 0.0000000000000000e+00  9.9999997764608561e-01 0.0000000000000000e+00 0.0000000000000000e+00  9.9999997764608561e-01 0.0000000000000000e+00 0.0000000000000000e+00  9.9999997764608561e-01 0.0000000000000000e+00 0.0000000000000000e+00  9.9999997764608561e-01 0.0000000000000000e+00 0.0000000000000000e+00  9.9999997764608561e-01 0.0000000000000000e+00 0.0000000000000000e+00  9.9999997764608561e-01 0.0000000000000000e+00 0.0000000000000000e+00  9.9999997764608561e-01 0.0000000000000000e+00 0.0000000000000000e+00  9.9999997764608561e-01 0.0000000000000000e+00 0.0000000000000000e+00  9.9999997764608561e-01 0.0000000000000000e+00 0.0000000000000000e+00  9.9999997764608561e-01 0.0000000000000000e+00 0.0000000000000000e+00  9.9999997764608561e-01 0.0000000000000000e+00 0.0000000000000000e+00  9.9999997764608561e-01 0.0000000000000000e+00 0.0000000000000000e+00  9.9999997764608561e-01 0.0000000000000000e+00 0.0000000000000000e+00  9.9999997764608561e-01 0.0000000000000000e+00 0.0000000000000000e+00  9.9999997764608561e-01 0.0000000000000000e+00 0.0000000000000000e+00  5.4038097836983923e-01 3.3935756270785412e-02 0.0000000000000000e+00  2.9407814107579039e-01 -1.3207579313271425e-02 0.0000000000000000e+00  2.9969662194928970e-01 6.1824891149685618e-02 0.0000000000000000e+00  2.4821362184356197e-01 -9.2273392356004902e-02 0.0000000000000000e+00  4.5690195130528732e-01 2.2286591498964406e-01 0.0000000000000000e+00  5.6034077552212780e-01 -1.7982661167531824e-01 0.0000000000000000e+00  3.7747440688726397e-01 -2.2459221869657542e-02 0.0000000000000000e+00  1.4866112430235490e-01 1.4444654661310452e-01 0.0000000000000000e+00  8.4434110667400564e-01 2.0597542211476444e-02 0.0000000000000000e+00  1.3385442835019846e-02 2.7262540256738638e-01 0.0000000000000000e+00  6.4520747646919105e-02 -1.4048514169317014e-01 0.0000000000000000e+00  2.6789087577686371e-01 -3.1784288265602556e-01 0.0000000000000000e+00  2.8263286449433805e-01 -1.5270241624361220e-04 0.0000000000000000e+00  -1.1932141503803194e-01 2.6336593327550606e-01 0.0000000000000000e+00  -3.2383962691705004e-01 -3.4327649373532948e-01 0.0000000000000000e+00  -5.2381113172296057e-01 -1.6986258291897130e-01 0.0000000000000000e+00  -3.7940758746473729e-01 3.2018358847011236e-02 0.0000000000000000e+00  3.7519050995964826e-01 1.6614063553760752e-01 0.0000000000000000e+00  -4.7814427740279203e-01 3.4661797134402661e-01 0.0000000000000000e+00  7.9814771094538650e-01 1.5443735104316206e-01 0.0000000000000000e+00  3.9753445247171798e-01 -1.8867593534058877e-01 0.0000000000000000e+00  8.2888636071212440e-01 -1.2592293095640647e-01 0.0000000000000000e+00  2.7357616402959367e-01 2.3060068139870660e-04 0.0000000000000000e+00  5.3737651535024222e-01 -4.5561142871927238e-02 0.0000000000000000e+00  2.1848768597020993e-01 -3.5576824228172710e-01 0.0000000000000000e+00  -5.9059643511077398e-02 -4.6875007188423684e-01 0.0000000000000000e+00  2.8005204516984039e-01 6.6155351675364930e-03 0.0000000000000000e+00  3.3877251451484769e-01 3.5814179328370060e-01 0.0000000000000000e+00  5.5849922500680278e-02 4.6374210621223594e-01 0.0000000000000000e+00  -4.3279787278866116e-01 -3.7406257510571378e-01 0.0000000000000000e+00  9.3909228917802745e-01 5.7484782174084544e-02 0.0000000000000000e+00  9.5845941546419633e-01 -1.5193646834829143e-02 0.0000000000000000e+00  8.7829016231318380e-01 1.3916897143864365e-01 0.0000000000000000e+00  6.6509252693890752e-01 9.9174527450568026e-02 0.0000000000000000e+00  8.8630594072852120e-01 -1.2273481206537414e-01 0.0000000000000000e+00  7.6683345737235065e-01 -1.2906792288443991e-01 0.0000000000000000e+00  2.9525050878882264e-01 -5.4157758035270558e-02 0.0000000000000000e+00  2.8508361260321297e-01 4.7259593877518651e-02 0.0000000000000000e+00  5.4966887383087049e-01 2.1237918566347677e-01 0.0000000000000000e+00  2.7341932400395758e-01 -1.3524128582320088e-03 0.0000000000000000e+00  -1.7784830018060668e-01 2.2315023242843826e-01 0.0000000000000000e+00  2.7308040338035383e-01 -2.1767096624862868e-04 0.0000000000000000e+00  5.8010135774176730e-01 -2.3128173933326521e-01 0.0000000000000000e+00  2.5885372736727652e-01 -1.7894562007701741e-02 0.0000000000000000e+00  -3.4834293627394325e-01 5.0055992795753934e-01 0.0000000000000000e+00  2.7168337840904055e-01 2.3976387355805922e-03 0.0000000000000000e+00  2.7477827286903167e-01 -3.8518247895794294e-03 0.0000000000000000e+00  1.5084671031474081e-01 2.0380448106632443e-01 0.0000000000000000e+00  1.7766311794361000e-01 -1.9162293509926315e-01 0.0000000000000000e+00  9.4464635182794665e-01 6.7715243901120187e-02 0.0000000000000000e+00  9.5992587028060616e-01 -5.2175641096349097e-02 0.0000000000000000e+00  -2.2525029193783266e-01 -5.8983064672000429e-01 0.0000000000000000e+00  4.8004084229515320e-01 -4.0009967525468060e-01 0.0000000000000000e+00  4.2559747786496550e-02 -1.3140780126288354e-01 0.0000000000000000e+00  -3.2966598968987537e-01 -4.3959714397968935e-01 0.0000000000000000e+00  2.6917096418420744e-01 -1.0601605990077503e-02 0.0000000000000000e+00  -1.2836619854504011e-01 5.8093568940089457e-01 0.0000000000000000e+00  6.2805269041690714e-01 -2.0005008155326007e-02 0.0000000000000000e+00  -1.8570858513442459e-01 2.9542329551537255e-01 0.0000000000000000e+00  3.1437062107143376e-01 1.0794792392441511e-02 0.0000000000000000e+00  2.7145880224195512e-01 3.5723398943818881e-04 0.0000000000000000e+00  2.5962202669322809e-01 1.7647006076802970e-02 0.0000000000000000e+00  2.8500115392796638e-01 -9.3680969004104138e-04 0.0000000000000000e+00  2.2586407023118296e-01 3.9916214647782396e-02 0.0000000000000000e+00  6.9609965927243278e-01 4.0592564063647522e-02 0.0000000000000000e+00  3.0760972876361176e-01 -4.8521767220744423e-02 0.0000000000000000e+00  -8.6041740127081948e-02 -2.3108192123869231e-01 0.0000000000000000e+00  1.6784651408200774e-01 -5.5981351670873114e-01 0.0000000000000000e+00  2.6469209901130791e-01 1.1571999975646565e-02 0.0000000000000000e+00  9.8196034732733428e-01 1.9098242522361950e-02 0.0000000000000000e+00  2.9579872956459741e-01 5.4917621120610594e-01 0.0000000000000000e+00  5.0429891080878209e-01 3.9430123237407810e-01 0.0000000000000000e+00  9.4818347735314989e-01 7.0514713053031725e-02 0.0000000000000000e+00  6.4821929186649074e-01 9.1073857980937797e-02 0.0000000000000000e+00  2.7330668135725067e-01 8.4322677836616070e-05 0.0000000000000000e+00  9.4310609114179067e-01 -7.1407827525416620e-02 0.0000000000000000e+00  -8.6699483947010339e-02 -2.3836466419030594e-01 0.0000000000000000e+00  2.7077921948700734e-01 6.3900539622545587e-04 0.0000000000000000e+00  9.8605130475442637e-01 -1.6709256612662499e-02 0.0000000000000000e+00  3.6466077875986419e-01 1.0806446480683676e-02 0.0000000000000000e+00  2.7499312021196165e-01 -6.0881286487991806e-06 0.0000000000000000e+00  4.4394570695765551e-01 7.1184003606738586e-02 0.0000000000000000e+00  2.6479369282810328e-01 3.9748941977468403e-03 0.0000000000000000e+00  7.0565675095931424e-01 -4.6846004165420632e-02 0.0000000000000000e+00  2.8503217260962654e-01 2.1130312192138647e-02 0.0000000000000000e+00  -1.8057258023656220e-01 2.3230991928497938e-01 0.0000000000000000e+00  3.2149960666398314e-01 6.1002668986562973e-02 0.0000000000000000e+00  7.9053469440194057e-01 3.0804269878638896e-02 0.0000000000000000e+00  -6.4074274730887101e-02 -6.5015649275021359e-01 0.0000000000000000e+00  2.6936449291825465e-01 -3.5806432747800587e-04 0.0000000000000000e+00  -6.6618519965239387e-01 2.5171044272825593e-01 0.0000000000000000e+00  1.7996678853242501e-01 -3.9423869198217630e-02 0.0000000000000000e+00  6.8661078389105867e-01 2.7795864376650659e-01 0.0000000000000000e+00  -2.7603948043185639e-01 5.5112860052393475e-01 0.0000000000000000e+00  -2.8435953871937442e-01 4.1400030394262577e-01 0.0000000000000000e+00  4.0035740841017631e-01 -1.0553812832039212e-01 0.0000000000000000e+00  2.9069756401304214e-01 3.3737306364649889e-03 0.0000000000000000e+00  7.1334142605549000e-01 -1.7701343305284351e-01 0.0000000000000000e+00  4.8538528729865510e-01 -1.4006379339707720e-01 0.0000000000000000e+00  3.4481757658270845e-01 5.2691071892388704e-02 0.0000000000000000e+00  2.6890886080727711e-01 1.1486879913129008e-01 0.0000000000000000e+00  7.2963566171920624e-01 1.3177227914435546e-01 0.0000000000000000e+00  1.8716691358392579e-01 -1.5292654689557184e-01 0.0000000000000000e+00  2.6545149646031951e-01 -2.1950088913537218e-03 0.0000000000000000e+00  2.6834354648054792e-01 -7.4444757302392543e-05 0.0000000000000000e+00  5.6104149342308646e-02 6.4778376110332336e-01 0.0000000000000000e+00  1.9811537253755390e-01 -6.8210878043323639e-02 0.0000000000000000e+00  -1.6873690928499882e-01 -3.3739442339190795e-01 0.0000000000000000e+00  7.7991553655441903e-01 -8.7018681217335900e-02 0.0000000000000000e+00  2.5769203665069229e-01 -5.2113646738743934e-03 0.0000000000000000e+00  1.9102317534462326e-01 6.9156006313314936e-02 0.0000000000000000e+00  9.5367104951639670e-01 -5.8727545611245220e-02 0.0000000000000000e+00  3.9906006735989813e-01 2.9515465190788276e-01 0.0000000000000000e+00  2.7360536098282878e-01 -3.3447318611964677e-04 0.0000000000000000e+00  2.2529720866367572e-01 -3.0782341124283782e-02 0.0000000000000000e+00  9.5830989712152848e-01 5.3637734196614002e-02 0.0000000000000000e+00  9.7501912369684973e-01 3.7201484154516899e-02 0.0000000000000000e+00  5.2317931665870850e-02 2.2201337277673475e-01 0.0000000000000000e+00  3.3373840543586325e-01 1.2757943550888384e-01 0.0000000000000000e+00  5.3510743578986975e-01 -2.4698263770827783e-01 0.0000000000000000e+00  2.7721333493864697e-01 -1.2955319184271738e-02 0.0000000000000000e+00  9.6726098112571113e-01 -4.6178382854001172e-02 0.0000000000000000e+00  2.9922420301618291e-01 -1.4345101956480061e-02 0.0000000000000000e+00  2.4606358783765495e-01 -2.1355080550106893e-02 0.0000000000000000e+00  4.6036497578450919e-01 -3.4824693399281778e-02 0.0000000000000000e+00  -1.9493572399163869e-01 -3.0569292364374467e-01 0.0000000000000000e+00  -2.9892356016767080e-01 -4.8645222016839235e-01 0.0000000000000000e+00  1.0728697298149872e-01 3.1982465274775655e-02 0.0000000000000000e+00  3.1912660328900472e-01 -9.7827621174735077e-02 0.0000000000000000e+00  2.8067897646873008e-01 7.3646412968622523e-04 0.0000000000000000e+00  -5.8468496323139496e-01 -1.1638152565780290e-01 0.0000000000000000e+00  2.7565834501487607e-01 -3.8383397613483070e-03 0.0000000000000000e+00  2.8234152665881085e-01 -3.2458320996881437e-02 0.0000000000000000e+00  9.8865834292137977e-01 -3.3570820567319011e-04 0.0000000000000000e+00  1.4009563991776258e-01 1.1700915686253553e-01 0.0000000000000000e+00  8.8049804465853421e-01 -5.6675343757411616e-02 0.0000000000000000e+00  2.8390080496083525e-01 1.4057255732829997e-02 0.0000000000000000e+00  9.0359475282630042e-01 3.7582448930395314e-02 0.0000000000000000e+00  4.7400701068809531e-02 -5.0145148359057715e-02 0.0000000000000000e+00  2.3685643582337787e-01 2.2144054027790724e-02 0.0000000000000000e+00  3.3570186280784431e-01 -5.5035531500669321e-01 0.0000000000000000e+00  6.3291278757103631e-01 -4.0745782480108728e-01 0.0000000000000000e+00  9.1572981562838462e-01 -6.4687854347205379e-02 0.0000000000000000e+00  2.6466793343604278e-01 2.0538245169332228e-01 0.0000000000000000e+00  2.6556196478909960e-01 -1.0763450321442313e-03 0.0000000000000000e+00  1.7297430571353375e-01 -2.2091964991354282e-01 0.0000000000000000e+00  -7.3454093637086348e-01 4.3843106249465288e-02 0.0000000000000000e+00  2.7554970813928176e-01 -2.0351282398987883e-01 0.0000000000000000e+00  -4.9279568503944665e-01 -1.6713462312626326e-01 0.0000000000000000e+00  3.2858058695780235e-01 -1.3540148801010144e-02 0.0000000000000000e+00  9.4811317303024978e-01 5.2094338950240231e-02 0.0000000000000000e+00  8.6976348986922436e-01 9.1912421236673300e-02 0.0000000000000000e+00  5.7042662873963679e-01 3.9939006543986816e-01 0.0000000000000000e+00  6.5063655645815732e-01 2.6153425928838447e-01 0.0000000000000000e+00  9.8859918448457118e-01 -2.06470649990067