<?xml version="1.0"?>
<VTKFile type="UnstructuredGrid"  version="0.1"  >
<UnstructuredGrid>
<Piece  NumberOfPoints="622" NumberOfCells="1116">
<Points>
<DataArray  type="Float64"  NumberOfComponents="3"  format="ascii">-6 -2 0  -6 2 0  6 2 0  6 -2 0  -2.8 0 0  -1.2 0 0  -5.500000000001853 -2 0  -5.000000000003705 -2 0  -4.500000000005556 -2 0  -4.000000000007409 -2 0  -3.50000000000926 -2 0  -3.000000000011112 -2 0  -2.500000000012963 -2 0  -2.000000000014814 -2 0  -1.500000000016665 -2 0  -1.000000000018516 -2 0  -0.5000000000203677 -2 0  -2.204547655537681e-11 -2 0  0.4999999999796305 -2 0  0.9999999999814779 -2 0  1.499999999983327 -2 0  1.999999999985175 -2 0  2.499999999987029 -2 0  2.999999999988882 -2 0  3.499999999990735 -2 0  3.999999999992589 -2 0  4.49999999999444 -2 0  4.999999999996293 -2 0  5.499999999998147 -2 0  6 -1.500000000001387 0  6 -1.000000000002774 0  6 -0.5000000000041616 0  6 -5.505595979116151e-12 0  6 0.4999999999958384 0  6 0.9999999999972258 0  6 1.499999999998613 0  5.500000000001853 2 0  5.000000000003705 2 0  4.500000000005556 2 0  4.000000000007409 2 0  3.50000000000926 2 0  3.000000000011112 2 0  2.500000000012963 2 0  2.000000000014814 2 0  1.500000000016665 2 0  1.000000000018516 2 0  0.5000000000203677 2 0  2.204547655537681e-11 2 0  -0.4999999999796305 2 0  -0.9999999999814779 2 0  -1.499999999983327 2 0  -1.999999999985175 2 0  -2.499999999987029 2 0  -2.999999999988882 2 0  -3.499999999990735 2 0  -3.999999999992589 2 0  -4.49999999999444 2 0  -4.999999999996293 2 0  -5.499999999998147 2 0  -6 1.500000000001387 0  -6 1.000000000002774 0  -6 0.5000000000041616 0  -6 5.505595979116151e-12 0  -6 -0.4999999999958384 0  -6 -0.9999999999972258 0  -6 -1.499999999998613 0  -2.796147781337886 -0.07841371226233997 0  -2.784628224322852 -0.1560722576115546 0  -2.765552268586196 -0.2322277418021561 0  -2.739103626009626 -0.30614674589063 0  -2.705537011479457 -0.3771173894593519 0  -2.665175689843037 -0.4444561864141836 0  -2.618408362691456 -0.5075146273293722 0  -2.565685424950688 -0.5656854249477874 0  -2.507514627332613 -0.6184083626887972 0  -2.444456186417533 -0.6651756898407991 0  -2.377117389462776 -0.7055370114776264 0  -2.306146745894456 -0.7391036260080417 0  -2.232227741806235 -0.7655522685849585 0  -2.15607225761588 -0.784628224321992 0  -2.078413712266957 -0.7961477813374315 0  -2.000000000003407 -0.7999999999999998 0  -1.921586287739523 -0.7961477813380696 0  -1.843927742389945 -0.7846282243231506 0  -1.767772258198879 -0.7655522685865098 0  -1.693853254109962 -0.7391036260098718 0  -1.622882610540873 -0.7055370114795768 0  -1.555543813585629 -0.6651756898429115 0  -1.49248537267008 -0.6184083626910072 0  -1.434314575051535 -0.5656854249500112 0  -1.381591637310384 -0.5075146273316149 0  -1.334824310158267 -0.4444561864161359 0  -1.294462988521423 -0.3771173894609975 0  -1.260896373990956 -0.3061467458920351 0  -1.234447731414138 -0.2322277418032578 0  -1.215371775677287 -0.156072257612254 0  -1.203852218662147 -0.07841371226267954 0  -1.203852218662115 0.07841371226235888 0  -1.215371775677132 0.156072257611478 0  -1.234447731413795 0.232227741802127 0  -1.260896373990353 0.3061467458905811 0  -1.294462988520456 0.3771173894591898 0  -1.334824310156812 0.444456186413959 0  -1.381591637308413 0.5075146273292139 0  -1.434314575049147 0.5656854249476236 0  -1.492485372667197 0.6184083626886415 0  -1.555543813582104 0.6651756898405565 0  -1.62288261053673 0.7055370114773629 0  -1.693853254105125 0.7391036260078683 0  -1.767772258193396 0.7655522685848468 0  -1.84392774238373 0.7846282243219146 0  -1.921586287732977 0.7961477813374253 0  -1.999999999996558 0.8 0  -2.078413712260516 0.7961477813380661 0  -2.156072257610207 0.7846282243231205 0  -2.232227741801178 0.7655522685864928 0  -2.306146745890059 0.7391036260098632 0  -2.377117389459098 0.7055370114795929 0  -2.444456186414405 0.6651756898428894 0  -2.50751462732998 0.6184083626909587 0  -2.565685424948549 0.5656854249499272 0  -2.61840836268981 0.5075146273313792 0  -2.665175689841831 0.4444561864159886 0  -2.705537011478692 0.3771173894607835 0  -2.739103626009108 0.3061467458918818 0  -2.76555226858589 0.2322277418031643 0  -2.784628224322724 0.1560722576122001 0  -2.796147781337853 0.07841371226267957 0  0.6720367661319522 0.1312687487860887 0  -4.389489086394485 0.3544472233398538 0  -3.816221554046232 -0.6097988664512611 0  -3.552726516474419 0.9342959806851625 0  -0.2536610443052337 0.8162373554653355 0  -0.1843238977799138 -0.6649951410982842 0  -3.613359951620445 0.1086570650978273 0  -3.146954163409593 -1.074378179335012 0  -0.4255266515582625 0.07734891565364931 0  -0.9413731612925856 1.168014724254929 0  -2.947764053183577 1.200029094390044 0  -0.8319852757411681 -1.058626838707328 0  2.675418990747819 -1.137325591670363e-12 0  -2.602010642259726 -1.287560129290477 0  -2.334401622060699 1.335006108940604 0  -1.524718496628401 1.32890816230333 0  -1.369813829148039 -1.26145150481762 0  -3.294065651892671 -0.4630240940010318 0  -2.072749204569071 -1.388981302138359 0  -0.7546165313921411 0.5601792161340381 0  -3.224879719581335 0.4382689715877901 0  -0.7073137361349826 -0.4625305410752652 0  4.326242945813966 0.3262429458150917 0  -3.187880061217201 0.07437712177460168 0  -2.94792024259867 0.7030255657465158 0  -2.678809277907896 0.9152683582887104 0  -4.911626141576894 -0.5700186648601188 0  -2.980647654587299 -0.5685006168686053 0  -2.769438919323564 -0.8202775213660614 0  -1.936950121013948 1.220669938589229 0  -0.8971643766260747 0.2762459428874499 0  -0.8760878018253068 -0.06836412137772707 0  -1.086827485441145 0.6772548942594016 0  -1.31355927028917 0.8808768148414213 0  -1.034266382739347 -0.5912381576649568 0  -1.241594139118264 -0.836771920085274 0  1.667161185638911 -0.6367996576268693 0  1.778189842800902 0.7191719841256095 0  -3.065106827511819 -0.266795371500425 0  3.714311277362231 -0.7275465302492842 0  -1.728329421201519 -1.09954751473283 0  4.870629493137888 -0.7325040699186681 0  -3.024707894719303 0.2567561910603656 0  -4.375540207252226 1.228935704312058 0  -2.272077148001781 -1.086192861256262 0  3.351408248797803 0.9175227128129597 0  -5.141847419540732 0.8091901960109126 0  0.5769368286199241 1.111816231125821 0  0.7411482978492124 -1.079569101289617 0  -1.074013749991219 0.430231207546053 0  -1.04664573441257 -0.3358382377487088 0  -2.439195336951085 0.9224778883059374 0  -2.902607676587358 0.4360473765597399 0  -1.629450174302152 1.035617385691805 0  -2.146859933125513 1.032375363966426 0  2.587625196444542 -0.9999926061845814 0  -2.529286802957126 -0.8830616815739111 0  -1.493798157676768 -0.8794705728517196 0  -1.932158132383022 -1.026681566564148 0  -4.09956359341904 -0.1372485582942864 0  5.055802064425553 1.050933510837308 0  -4.413659685984891 -1.207626391697488 0  -4.961411026474009 0.1201902955685026 0  -3.771151641156835 -1.303594976371997 0  -3.001321503506133 -0.04919177107285733 0  -3.881733605683001 0.5124517634812003 0  -0.1971627317996802 -1.336445372382849 0  -2.742825060181767 0.6732573903735507 0  2.520439429199979 1.129372838786189 0  -1.026326428668429 0.1384273198437734 0  -2.779290004861729 -0.5844691722665721 0  -2.895095740820851 -0.4261289730972082 0  -1.275682076193407 0.6630703172777138 0  0.1045291701958869 0.3433373435296472 0  5.175560481258801 0.0608563229178163 0  -1.211574424201636 -0.5847362589868093 0  -1.85847006217035 1.007917631940711 0  4.152535916385823 1.131901130662082 0  -1.04878257200685 -0.1253529988863012 0  1.432836501626023 0.05634449574318775 0  3.560672936003603 0.01188897172456759 0  -3.351823698389408 -0.1821329582635926 0  -5.145153363200735 -1.259166339382508 0  0.03473693330309885 -0.1724947236036572 0  -4.377830921337186 -0.6172564090242229 0  -0.3943750728122595 1.410897156959435 0  -1.661073679471639 -0.9342065000197183 0  -1.49086536677686 0.8331714487926741 0  -2.584486130952032 0.7871482690034864 0  4.270535884593893 -1.259607924744415 0  -1.757417028085795 -1.505182186951191 0  -3.430586920998477 1.425579221231371 0  -2.917598827418652 -0.2298465409534677 0  -2.328978331116049 -0.9300959620317677 0  -2.148543000691344 -0.9751580214451921 0  1.002654111360038 -0.4521702885594788 0  -4.628651824080903 -0.1127998710567241 0  -2.948904386702482 0.1555943115410545 0  0.4165242577134774 -0.5629432649478633 0  -3.698137692471105 -0.3173027948676715 0  -3.491400684461791 -0.7926319721650269 0  -0.3844454817728994 0.4680628696134375 0  -3.207830713508533 0.9778749990559993 0  3.229909751065535 -1.326302454776001 0  5.330007715336748 -1.312905173261894 0  -2.649214054100534 -0.713314536278899 0  1.342022964818772 -1.328315248672686 0  -2.556460939068198 1.202372762828344 0  -0.3497819755044588 -0.3080427614060888 0  -4.928440909495523 1.387622767511967 0  1.309170811945155 1.337467055109531 0  -1.352031940181449 -0.7151198948590243 0  -0.6132855723904642 0.9519045895123004 0  4.266838388406324 -0.3707357390867402 0  -3.834389788310238 1.371594798941152 0  -1.187890214580146 0.4851427123079557 0  -1.109118888029193 0.3185947354467283 0  0.1837819401738013 1.234799661476361 0  1.108165254659559 0.6237223548284967 0  -0.5266600156584522 -0.8113991260886402 0  -4.643822083543982 0.7834094684931707 0  -1.146235204666366 -0.4027330721405781 0  2.049029845992713 -0.2664662499985428 0  2.002665761665898 -1.328912351029848 0  -1.678783505586872 0.8978832065736417 0  -2.049499525232052 0.9483890761590005 0  -2.229972236535132 0.9181006323151361 0  -3.033763529945482 -1.54240494280775 0  -3.562344364746847 0.5622550957224539 0  -5.524396842903405 -0.2709714867672603 0  -0.9710982764034376 -1.549038578476423 0  3.058819320130555 -0.5375106252795963 0  -4.170365230099585 0.7342553699229977 0  -1.045878746461381 -8.187420622554697e-05 0  -1.864822945411764 -0.9219031104673102 0  -0.6251005091687033 -0.2120650512195049 0  2.317562622406059 0.4886417799113238 0  -0.6674371191466613 0.1483993095055008 0  -2.705757882979874 1.609712312948224 0  
[...]
<PointData  Vectors="f_22"> 
<DataArray  type="Float64"  Name="f_22"  NumberOfComponents="3" format="ascii">0.0000000000000000e+00 0.0000000000000000e+00 0.0000000000000000e+00  0.0000000000000000e+00 0.0000000000000000e+00 0.0000000000000000e+00  0.0000000000000000e+00 0.0000000000000000e+00 0.0000000000000000e+00  0.0000000000000000e+00 0.0000000000000000e+00 0.0000000000000000e+00  9.9999997622326409e-01 0.0000000000000000e+00 0.0000000000000000e+00  9.9999997622326409e-01 0.0000000000000000e+00 0.0000000000000000e+00  0.0000000000000000e+00 0.0000000000000000e+00 0.0000000000000000e+00  0.0000000000000000e+00 0.0000000000000000e+00 0.0000000000000000e+00  0.0000000000000000e+00 0.0000000000000000e+00 0.0000000000000000e+00  0.0000000000000000e+00 0.0000000000000000e+00 0.0000000000000000e+00  0.0000000000000000e+00 0.0000000000000000e+00 0.0000000000000000e+00  0.0000000000000000e+00 0.0000000000000000e+00 0.0000000000000000e+00  0.0000000000000000e+00 0.0000000000000000e+00 0.0000000000000000e+00  0.0000000000000000e+00 0.0000000000000000e+00 0.0000000000000000e+00  0.0000000000000000e+00 0.0000000000000000e+00 0.0000000000000000e+00  0.0000000000000000e+00 0.0000000000000000e+00 0.0000000000000000e+00  0.0000000000000000e+00 0.0000000000000000e+00 0.0000000000000000e+00  0.0000000000000000e+00 0.0000000000000000e+00 0.0000000000000000e+00  0.0000000000000000e+00 0.0000000000000000e+00 0.0000000000000000e+00  0.0000000000000000e+00 0.0000000000000000e+00 0.0000000000000000e+00  0.0000000000000000e+00 0.0000000000000000e+00 0.0000000000000000e+00  0.0000000000000000e+00 0.0000000000000000e+00 0.0000000000000000e+00  0.0000000000000000e+00 0.0000000000000000e+00 0.0000000000000000e+00  0.0000000000000000e+00 0.0000000000000000e+00 0.0000000000000000e+00  0.0000000000000000e+00 0.0000000000000000e+00 0.0000000000000000e+00  0.0000000000000000e+00 0.0000000000000000e+00 0.0000000000000000e+00  0.0000000000000000e+00 0.0000000000000000e+00 0.0000000000000000e+00  0.0000000000000000e+00 0.0000000000000000e+00 0.0000000000000000e+00  0.0000000000000000e+00 0.0000000000000000e+00 0.0000000000000000e+00  2.8600525859170695e-01 1.2743870671787946e-04 0.0000000000000000e+00  3.1135735714380791e-01 1.6163812591533236e-04 0.0000000000000000e+00  3.1279960481927033e-01 -1.7640569735929479e-05 0.0000000000000000e+00  3.1288859225055937e-01 -6.5233753190210208e-06 0.0000000000000000e+00  3.1281884061543880e-01 -4.7380328577351071e-06 0.0000000000000000e+00  3.1204337671389409e-01 2.1647277283599921e-04 0.0000000000000000e+00  2.8663818009447289e-01 -4.8197257491064860e-04 0.0000000000000000e+00  0.0000000000000000e+00 0.0000000000000000e+00 0.0000000000000000e+00  0.0000000000000000e+00 0.0000000000000000e+00 0.0000000000000000e+00  0.0000000000000000e+00 0.0000000000000000e+00 0.0000000000000000e+00  0.0000000000000000e+00 0.0000000000000000e+00 0.0000000000000000e+00  0.0000000000000000e+00 0.0000000000000000e+00 0.0000000000000000e+00  0.0000000000000000e+00 0.0000000000000000e+00 0.0000000000000000e+00  0.0000000000000000e+00 0.0000000000000000e+00 0.0000000000000000e+00  0.0000000000000000e+00 0.0000000000000000e+00 0.0000000000000000e+00  0.0000000000000000e+00 0.0000000000000000e+00 0.0000000000000000e+00  0.0000000000000000e+00 0.0000000000000000e+00 0.0000000000000000e+00  0.0000000000000000e+00 0.0000000000000000e+00 0.0000000000000000e+00  0.0000000000000000e+00 0.0000000000000000e+00 0.0000000000000000e+00  0.0000000000000000e+00 0.0000000000000000e+00 0.0000000000000000e+00  0.0000000000000000e+00 0.0000000000000000e+00 0.0000000000000000e+00  0.0000000000000000e+00 0.0000000000000000e+00 0.0000000000000000e+00  0.0000000000000000e+00 0.0000000000000000e+00 0.0000000000000000e+00  0.0000000000000000e+00 0.0000000000000000e+00 0.0000000000000000e+00  0.0000000000000000e+00 0.0000000000000000e+00 0.0000000000000000e+00  0.0000000000000000e+00 0.0000000000000000e+00 0.0000000000000000e+00  0.0000000000000000e+00 0.0000000000000000e+00 0.0000000000000000e+00  0.0000000000000000e+00 0.0000000000000000e+00 0.0000000000000000e+00  0.0000000000000000e+00 0.0000000000000000e+00 0.0000000000000000e+00  0.0000000000000000e+00 0.0000000000000000e+00 0.0000000000000000e+00  2.8025513314963224e-01 -1.1011251514587764e-03 0.0000000000000000e+00  3.0925642522581454e-01 -1.0135610594350303e-03 0.0000000000000000e+00  3.1834606820860517e-01 -1.3201083318888913e-03 0.0000000000000000e+00  3.2309518727007180e-01 1.0288245360530863e-03 0.0000000000000000e+00  3.1928610657173884e-01 4.8254910628230233e-04 0.0000000000000000e+00  3.1031705418672689e-01 8.9368742022989255e-04 0.0000000000000000e+00  2.7992242170943249e-01 8.8699748252523693e-04 0.0000000000000000e+00  9.9999997622326409e-01 0.0000000000000000e+00 0.0000000000000000e+00  9.9999997622326409e-01 0.0000000000000000e+00 0.0000000000000000e+00  9.9999997622326409e-01 0.0000000000000000e+00 0.0000000000000000e+00  9.9999997622326409e-01 0.0000000000000000e+00 0.0000000000000000e+00  9.9999997622326409e-01 0.0000000000000000e+00 0.0000000000000000e+00  9.9999997622326409e-01 0.0000000000000000e+00 0.0000000000000000e+00  9.9999997622326409e-01 0.0000000000000000e+00 0.0000000000000000e+00  9.9999997622326409e-01 0.0000000000000000e+00 0.0000000000000000e+00  9.9999997622326409e-01 0.0000000000000000e+00 0.0000000000000000e+00  9.9999997622326409e-01 0.0000000000000000e+00 0.0000000000000000e+00  9.9999997622326409e-01 0.0000000000000000e+00 0.0000000000000000e+00  9.9999997622326409e-01 0.0000000000000000e+00 0.0000000000000000e+00  9.9999997622326409e-01 0.0000000000000000e+00 0.0000000000000000e+00  9.9999997622326409e-01 0.0000000000000000e+00 0.0000000000000000e+00  9.9999997622326409e-01 0.0000000000000000e+00 0.0000000000000000e+00  9.9999997622326409e-01 0.0000000000000000e+00 0.0000000000000000e+00  9.9999997622326409e-01 0.0000000000000000e+00 0.0000000000000000e+00  9.9999997622326409e-01 0.0000000000000000e+00 0.0000000000000000e+00  9.9999997622326409e-01 0.0000000000000000e+00 0.0000000000000000e+00  9.9999997622326409e-01 0.0000000000000000e+00 0.0000000000000000e+00  9.9999997622326409e-01 0.0000000000000000e+00 0.0000000000000000e+00  9.9999997622326409e-01 0.0000000000000000e+00 0.0000000000000000e+00  9.9999997622326409e-01 0.0000000000000000e+00 0.0000000000000000e+00  9.9999997622326409e-01 0.0000000000000000e+00 0.0000000000000000e+00  9.9999997622326409e-01 0.0000000000000000e+00 0.0000000000000000e+00  9.9999997622326409e-01 0.0000000000000000e+00 0.0000000000000000e+00  9.9999997622326409e-01 0.0000000000000000e+00 0.0000000000000000e+00  9.9999997622326409e-01 0.0000000000000000e+00 0.0000000000000000e+00  9.9999997622326409e-01 0.0000000000000000e+00 0.0000000000000000e+00  9.9999997622326409e-01 0.0000000000000000e+00 0.0000000000000000e+00  9.9999997622326409e-01 0.0000000000000000e+00 0.0000000000000000e+00  9.9999997622326409e-01 0.0000000000000000e+00 0.0000000000000000e+00  9.9999997622326409e-01 0.0000000000000000e+00 0.0000000000000000e+00  9.9999997622326409e-01 0.0000000000000000e+00 0.0000000000000000e+00  9.9999997622326409e-01 0.0000000000000000e+00 0.0000000000000000e+00  9.9999997622326409e-01 0.0000000000000000e+00 0.0000000000000000e+00  9.9999997622326409e-01 0.0000000000000000e+00 0.0000000000000000e+00  9.9999997622326409e-01 0.0000000000000000e+00 0.0000000000000000e+00  9.9999997622326409e-01 0.0000000000000000e+00 0.0000000000000000e+00  9.9999997622326409e-01 0.0000000000000000e+00 0.0000000000000000e+00  9.9999997622326409e-01 0.0000000000000000e+00 0.0000000000000000e+00  9.9999997622326409e-01 0.0000000000000000e+00 0.0000000000000000e+00  9.9999997622326409e-01 0.0000000000000000e+00 0.0000000000000000e+00  9.9999997622326409e-01 0.0000000000000000e+00 0.0000000000000000e+00  9.9999997622326409e-01 0.0000000000000000e+00 0.0000000000000000e+00  9.9999997622326409e-01 0.0000000000000000e+00 0.0000000000000000e+00  9.9999997622326409e-01 0.0000000000000000e+00 0.0000000000000000e+00  9.9999997622326409e-01 0.0000000000000000e+00 0.0000000000000000e+00  9.9999997622326409e-01 0.0000000000000000e+00 0.0000000000000000e+00  9.9999997622326409e-01 0.0000000000000000e+00 0.0000000000000000e+00  9.9999997622326409e-01 0.0000000000000000e+00 0.0000000000000000e+00  9.9999997622326409e-01 0.0000000000000000e+00 0.0000000000000000e+00  9.9999997622326409e-01 0.0000000000000000e+00 0.0000000000000000e+00  9.9999997622326409e-01 0.0000000000000000e+00 0.0000000000000000e+00  9.9999997622326409e-01 0.0000000000000000e+00 0.0000000000000000e+00  9.9999997622326409e-01 0.0000000000000000e+00 0.0000000000000000e+00  9.9999997622326409e-01 0.0000000000000000e+00 0.0000000000000000e+00  9.9999997622326409e-01 0.0000000000000000e+00 0.0000000000000000e+00  9.9999997622326409e-01 0.0000000000000000e+00 0.0000000000000000e+00  9.9999997622326409e-01 0.0000000000000000e+00 0.0000000000000000e+00  9.9999997622326409e-01 0.0000000000000000e+00 0.0000000000000000e+00  9.9999997622326409e-01 0.0000000000000000e+00 0.0000000000000000e+00  6.1158003864494337e-01 2.6989421787134038e-02 0.0000000000000000e+00  3.3428092813169269e-01 -1.2210835472821412e-02 0.0000000000000000e+00  3.3955175523933967e-01 5.8148846997791007e-02 0.0000000000000000e+00  2.9296287005477356e-01 -8.7324615598737887e-02 0.0000000000000000e+00  5.2262267334657275e-01 2.1696054492052244e-01 0.0000000000000000e+00  6.1317359113703485e-01 -1.6655690295705078e-01 0.0000000000000000e+00  4.1223996795270379e-01 -2.0520331800975233e-02 0.0000000000000000e+00  2.0192432306593192e-01 1.3092271225980237e-01 0.0000000000000000e+00  8.6518680458765329e-01 1.7689247204940268e-02 0.0000000000000000e+00  5.8594582604185499e-02 2.0601590670875597e-01 0.0000000000000000e+00  1.2811325211964419e-01 -1.2120689553803070e-01 0.0000000000000000e+00  3.3071641235772908e-01 -2.7301886043769280e-01 0.0000000000000000e+00  3.2866362517844228e-01 -1.8001959287616397e-04 0.0000000000000000e+00  -3.1960031106868486e-02 2.0709946919350489e-01 0.0000000000000000e+00  -2.1785710446630310e-01 -2.9194173307558308e-01 0.0000000000000000e+00  -4.5030682952122608e-01 -2.1477021982236449e-01 0.0000000000000000e+00  -3.1697952063599738e-01 1.0086411859050476e-01 0.0000000000000000e+00  4.0895419219094209e-01 1.5500466000967383e-01 0.0000000000000000e+00  -3.8436464589425862e-01 3.2137088075783449e-01 0.0000000000000000e+00  8.4464141762478229e-01 1.3685580994548638e-01 0.0000000000000000e+00  4.3123315727937322e-01 -1.7478531250187615e-01 0.0000000000000000e+00  8.6167396412249808e-01 -1.1192415240988475e-01 0.0000000000000000e+00  3.1335012566065529e-01 3.6265897031486759e-04 0.0000000000000000e+00  5.6221867871718822e-01 -4.1777123205658177e-02 0.0000000000000000e+00  2.6260673696680381e-01 -3.2408425570947674e-01 0.0000000000000000e+00  -1.9963895312001821e-04 -4.1417558140651539e-01 0.0000000000000000e+00  3.2059698313997703e-01 6.2902713297509965e-03 0.0000000000000000e+00  3.7021611072076344e-01 3.3200782453798194e-01 0.0000000000000000e+00  1.0063491171759879e-01 4.1464613042573512e-01 0.0000000000000000e+00  -3.7573430883177256e-01 -3.6535129543016370e-01 0.0000000000000000e+00  9.5031969061613264e-01 4.9002669385438236e-02 0.0000000000000000e+00  9.6487204181136532e-01 -1.3224251992084757e-02 0.0000000000000000e+00  9.3097894284118776e-01 1.0867407169617402e-01 0.0000000000000000e+00  6.8172653725466148e-01 5.2898051262628198e-02 0.0000000000000000e+00  9.2640382196112592e-01 -9.9281277361588177e-02 0.0000000000000000e+00  7.9595097806041315e-01 -8.3890449567935954e-02 0.0000000000000000e+00  3.4716497816891029e-01 -8.8689389306306959e-02 0.0000000000000000e+00  3.2798669326154495e-01 8.0676294395133810e-02 0.0000000000000000e+00  5.7200919832841723e-01 2.0068265392832668e-01 0.0000000000000000e+00  3.1300734325055274e-01 -2.0444716142073733e-03 0.0000000000000000e+00  -1.4268768977764032e-01 2.2753687875552420e-01 0.0000000000000000e+00  3.1267159762935426e-01 -2.6151156072761519e-04 0.0000000000000000e+00  6.0191702901458677e-01 -2.1679227770795237e-01 0.0000000000000000e+00  2.9663316371374970e-01 -1.7800954491250378e-02 0.0000000000000000e+00  -3.0475194129184946e-01 4.7257881402746854e-01 0.0000000000000000e+00  3.1032435689367949e-01 3.8828344266503482e-03 0.0000000000000000e+00  3.1449071806696904e-01 -3.9506771400762168e-03 0.0000000000000000e+00  2.0821665016426599e-01 1.6898958754241075e-01 0.0000000000000000e+00  2.2825121694382583e-01 -1.6746392208424846e-01 0.0000000000000000e+00  9.5924634971396361e-01 5.4840164656970870e-02 0.0000000000000000e+00  9.6853304422888176e-01 -4.3081780992242281e-02 0.0000000000000000e+00  -1.8846154780521640e-01 -5.5586945785089148e-01 0.0000000000000000e+00  5.0417969288781228e-01 -3.7414982047258777e-01 0.0000000000000000e+00  6.5771306268951418e-02 -1.4929804496748811e-01 0.0000000000000000e+00  -3.0374872993170227e-01 -4.2712519868279453e-01 0.0000000000000000e+00  3.0524553870263132e-01 -1.7593077386435212e-02 0.0000000000000000e+00  -9.5945685616148788e-02 5.4415345352301769e-01 0.0000000000000000e+00  6.2692435092165555e-01 1.1209819210215289e-03 0.0000000000000000e+00  -1.7626459086194973e-01 2.9326509348131946e-01 0.0000000000000000e+00  3.5333106754203270e-01 1.0196549494123373e-02 0.0000000000000000e+00  3.1053409730377851e-01 4.3338460503568690e-04 0.0000000000000000e+00  2.9764537716076622e-01 1.7245267501453856e-02 0.0000000000000000e+00  3.2607980729452729e-01 -8.4863245406839615e-04 0.0000000000000000e+00  2.6490635686828040e-01 3.9661585440299019e-02 0.0000000000000000e+00  7.1144474674577507e-01 3.9222323562577301e-02 0.0000000000000000e+00  3.4704611784192113e-01 -4.5423732363054727e-02 0.0000000000000000e+00  -4.3057463826313404e-02 -2.1382319272335909e-01 0.0000000000000000e+00  2.0166423453183560e-01 -5.1631271503928333e-01 0.0000000000000000e+00  2.9804059017629980e-01 1.8823053590329486e-02 0.0000000000000000e+00  9.8507699113167202e-01 1.5975639682013834e-02 0.0000000000000000e+00  3.1793175862095385e-01 5.1580831874536526e-01 0.0000000000000000e+00  5.2468408413371415e-01 3.7074589192309854e-01 0.0000000000000000e+00  9.7979061384135568e-01 4.6379957695654131e-02 0.0000000000000000e+00  6.9189536249333516e-01 7.5439099737934806e-02 0.0000000000000000e+00  3.1298485563824680e-01 9.6724862838989863e-05 0.0000000000000000e+00  9.6813056142212994e-01 -5.2104961652959476e-02 0.0000000000000000e+00  -7.7741448766771762e-02 -2.3828804527639749e-01 0.0000000000000000e+00  3.0922167187825611e-01 8.1009953526080833e-04 0.0000000000000000e+00  9.8843333942506539e-01 -1.4079717352780435e-02 0.0000000000000000e+00  4.6057119097671345e-01 1.1398576590199570e-02 0.0000000000000000e+00  3.1567965455798669e-01 5.3966197426743713e-05 0.0000000000000000e+00  4.7407944153047898e-01 6.7100459584268718e-02 0.0000000000000000e+00  3.0115244788938356e-01 4.1168207226881465e-03 0.0000000000000000e+00  7.4443350817683374e-01 -3.9955004524206708e-02 0.0000000000000000e+00  3.2536694730390398e-01 1.9815651870801927e-02 0.0000000000000000e+00  -1.3927173533061776e-01 2.1797167917110688e-01 0.0000000000000000e+00  3.1741033618365655e-01 7.1488567036157122e-02 0.0000000000000000e+00  7.9515036447170684e-01 1.0809169889947168e-02 0.0000000000000000e+00  -3.1513631072567605e-02 -6.1104719372071203e-01 0.0000000000000000e+00  3.0627445854138935e-01 -4.5213083474091015e-04 0.0000000000000000e+00  -5.7060917645777698e-01 2.5562666071799012e-01 0.0000000000000000e+00  2.1729774905316765e-01 -4.1098010014380910e-02 0.0000000000000000e+00  7.0093388087026931e-01 2.6394414305748182e-01 0.0000000000000000e+00  -2.6167872181508384e-01 5.3547090868565650e-01 0.0000000000000000e+00  -2.7880952831430422e-01 4.0764538441010006e-01 0.0000000000000000e+00  4.8626457801608969e-01 -8.7468450890975782e-02 0.0000000000000000e+00  3.3143955790518942e-01 3.2038557763678873e-03 0.0000000000000000e+00  7.2808960808471812e-01 -1.6554863255270133e-01 0.0000000000000000e+00  5.4737533728202736e-01 -1.1316621589602208e-01 0.0000000000000000e+00  3.8163684423357908e-01 4.9560271361355386e-02 0.0000000000000000e+00  3.1170416329945599e-01 1.0684807056731997e-01 0.0000000000000000e+00  7.6680184780111771e-01 1.1965752209385497e-01 0.0000000000000000e+00  2.3891332429955378e-01 -1.4109235641896686e-01 0.0000000000000000e+00  2.9966380013135224e-01 -3.1854757899536126e-03 0.0000000000000000e+00  3.0440459247797624e-01 -3.9593186906490033e-05 0.0000000000000000e+00  7.8415461782904164e-02 6.1324193224419110e-01 0.0000000000000000e+00  1.9020631298969512e-01 -9.6329460671471606e-02 0.0000000000000000e+00  -8.0110294653487138e-02 -2.8020674614047009e-01 0.0000000000000000e+00  8.0861148762540969e-01 -7.7887750016153459e-02 0.0000000000000000e+00  2.9105528524065766e-01 -5.3648060628963996e-03 0.0000000000000000e+00  1.7960759625190550e-01 9.6337181534901339e-02 0.0000000000000000e+00  9.7947844438624665e-01 -3.4988669039794085e-02 0.0000000000000000e+00  4.8549748578392227e-01 2.9071967517787062e-01 0.0000000000000000e+00  3.1337552007220221e-01 -4.7327038731514510e-04 0.0000000000000000e+00  2.6138061912626409e-01 -3.1897027678366614e-02 0.0000000000000000e+00  9.7147741014217937e-01 4.1006794039158578e-02 0.0000000000000000e+00  9.8048142843827191e-01 3.0307235169028376e-02 0.0000000000000000e+00  1.0730556038837048e-01 1.8545808391008867e-01 0.0000000000000000e+00  4.1376686811478069e-01 1.1521434408713239e-01 0.0000000000000000e+00  6.1537216185732446e-01 -2.4038278395773865e-01 0.0000000000000000e+00  3.1733956061793800e-01 -1.2192831669444614e-02 0.0000000000000000e+00  9.7562444957088812e-01 -3.6853945542264080e-02 0.0000000000000000e+00  3.5743980233959893e-01 -2.6329370118081653e-02 0.0000000000000000e+00  2.6655203379990022e-01 -3.5079402795017367e-02 0.0000000000000000e+00  4.5274356569464019e-01 -4.0934943938528992e-02 0.0000000000000000e+00  -1.9446645759368447e-01 -3.0088337121186448e-01 0.0000000000000000e+00  -2.8932735816476657e-01 -4.7672440472357347e-01 0.0000000000000000e+00  1.4325845742310928e-01 2.8998563479763737e-02 0.0000000000000000e+00  3.5865838551545037e-01 -9.1143483979956100e-02 0.0000000000000000e+00  3.2168293667339887e-01 8.1141515870680519e-04 0.0000000000000000e+00  -5.6645441013327613e-01 -8.3393109779783078e-02 0.0000000000000000e+00  3.1644970504881970e-01 -6.4481961726312572e-03 0.0000000000000000e+00  3.2279626573582826e-01 -3.0864732171856365e-02 0.0000000000000000e+00  9.9049610718543568e-01 -3.5662759175704006e-04 0.0000000000000000e+00  1.2792682071512912e-01 1.1678474705408974e-01 0.0000000000000000e+00  8.9796889621166831e-01 -5.0136238089551928e-02 0.0000000000000000e+00  3.3024581568654027e-01 2.4938128345225196e-02 0.0000000000000000e+00  9.1769836605593647e-01 3.2774855259466225e-02 0.0000000000000000e+00  8.9325788405814094e-02 -3.5968191101298931e-02 0.0000000000000000e+00  2.5333163102875533e-01 3.5753713839920397e-02 0.0000000000000000e+00  3.6249742613485114e-01 -5.1528404930405869e-01 0.0000000000000000e+00  6.5022678789131971e-01 -3.8417326265360924e-01 0.0000000000000000e+00  9.2989568329313754e-01 -5.6366065688961964e-02 0.0000000000000000e+00  3.0691220887042037e-01 1.8894082635359663e-01 0.0000000000000000e+00  3.0157873683549324e-01 -1.2269097492958346e-03 0.0000000000000000e+00  2.3299384073457721e-01 -1.9132174678590194e-01 0.0000000000000000e+00  -7.0270019541608619e-01 9.7842340178645962e-03 0.0000000000000000e+00  3.1859217853131105e-01 -1.8787398309626663e-01 0.0000000000000000e+00  -3.8576192364206963e-01 -1.6179439982447100e-01 0.0000000000000000e+00  3.6663112235980894e-01 -1.2445262402486492e-02 0.0000000000000000e+00  9.7214744312912915e-01 2.7691877473939988e-02 0.0000000000000000e+00  8.9191055874568959e-01 8.0924130005236405e-02 0.0000000000000000e+00  5.8492823936158234e-01 3.7662833194656348e-01 0.0000000000000000e+00  7.3263319458713927e-01 2.2686029835218247e-01 0.0000000000000000e+00  9.9080596995758752e-01 -1.710591179481425