<?xml version="1.0"?>
<VTKFile type="UnstructuredGrid"  version="0.1"  >
<UnstructuredGrid>
<Piece  NumberOfPoints="622" NumberOfCells="1116">
<Points>
<DataArray  type="Float64"  NumberOfComponents="3"  format="ascii">-6 -2 0  -6 2 0  6 2 0  6 -2 0  -2.8 0 0  -1.2 0 0  -5.500000000001853 -2 0  -5.000000000003705 -2 0  -4.500000000005556 -2 0  -4.000000000007409 -2 0  -3.50000000000926 -2 0  -3.000000000011112 -2 0  -2.500000000012963 -2 0  -2.000000000014814 -2 0  -1.500000000016665 -2 0  -1.000000000018516 -2 0  -0.5000000000203677 -2 0  -2.204547655537681e-11 -2 0  0.4999999999796305 -2 0  0.9999999999814779 -2 0  1.499999999983327 -2 0  1.999999999985175 -2 0  2.499999999987029 -2 0  2.999999999988882 -2 0  3.499999999990735 -2 0  3.999999999992589 -2 0  4.49999999999444 -2 0  4.999999999996293 -2 0  5.499999999998147 -2 0  6 -1.500000000001387 0  6 -1.000000000002774 0  6 -0.5000000000041616 0  6 -5.505595979116151e-12 0  6 0.4999999999958384 0  6 0.9999999999972258 0  6 1.499999999998613 0  5.500000000001853 2 0  5.000000000003705 2 0  4.500000000005556 2 0  4.000000000007409 2 0  3.50000000000926 2 0  3.000000000011112 2 0  2.500000000012963 2 0  2.000000000014814 2 0  1.500000000016665 2 0  1.000000000018516 2 0  0.5000000000203677 2 0  2.204547655537681e-11 2 0  -0.4999999999796305 2 0  -0.9999999999814779 2 0  -1.499999999983327 2 0  -1.999999999985175 2 0  -2.499999999987029 2 0  -2.999999999988882 2 0  -3.499999999990735 2 0  -3.999999999992589 2 0  -4.49999999999444 2 0  -4.999999999996293 2 0  -5.499999999998147 2 0  -6 1.500000000001387 0  -6 1.000000000002774 0  -6 0.5000000000041616 0  -6 5.505595979116151e-12 0  -6 -0.4999999999958384 0  -6 -0.9999999999972258 0  -6 -1.499999999998613 0  -2.796147781337886 -0.07841371226233997 0  -2.784628224322852 -0.1560722576115546 0  -2.765552268586196 -0.2322277418021561 0  -2.739103626009626 -0.30614674589063 0  -2.705537011479457 -0.3771173894593519 0  -2.665175689843037 -0.4444561864141836 0  -2.618408362691456 -0.5075146273293722 0  -2.565685424950688 -0.5656854249477874 0  -2.507514627332613 -0.6184083626887972 0  -2.444456186417533 -0.6651756898407991 0  -2.377117389462776 -0.7055370114776264 0  -2.306146745894456 -0.7391036260080417 0  -2.232227741806235 -0.7655522685849585 0  -2.15607225761588 -0.784628224321992 0  -2.078413712266957 -0.7961477813374315 0  -2.000000000003407 -0.7999999999999998 0  -1.921586287739523 -0.7961477813380696 0  -1.843927742389945 -0.7846282243231506 0  -1.767772258198879 -0.7655522685865098 0  -1.693853254109962 -0.7391036260098718 0  -1.622882610540873 -0.7055370114795768 0  -1.555543813585629 -0.6651756898429115 0  -1.49248537267008 -0.6184083626910072 0  -1.434314575051535 -0.5656854249500112 0  -1.381591637310384 -0.5075146273316149 0  -1.334824310158267 -0.4444561864161359 0  -1.294462988521423 -0.3771173894609975 0  -1.260896373990956 -0.3061467458920351 0  -1.234447731414138 -0.2322277418032578 0  -1.215371775677287 -0.156072257612254 0  -1.203852218662147 -0.07841371226267954 0  -1.203852218662115 0.07841371226235888 0  -1.215371775677132 0.156072257611478 0  -1.234447731413795 0.232227741802127 0  -1.260896373990353 0.3061467458905811 0  -1.294462988520456 0.3771173894591898 0  -1.334824310156812 0.444456186413959 0  -1.381591637308413 0.5075146273292139 0  -1.434314575049147 0.5656854249476236 0  -1.492485372667197 0.6184083626886415 0  -1.555543813582104 0.6651756898405565 0  -1.62288261053673 0.7055370114773629 0  -1.693853254105125 0.7391036260078683 0  -1.767772258193396 0.7655522685848468 0  -1.84392774238373 0.7846282243219146 0  -1.921586287732977 0.7961477813374253 0  -1.999999999996558 0.8 0  -2.078413712260516 0.7961477813380661 0  -2.156072257610207 0.7846282243231205 0  -2.232227741801178 0.7655522685864928 0  -2.306146745890059 0.7391036260098632 0  -2.377117389459098 0.7055370114795929 0  -2.444456186414405 0.6651756898428894 0  -2.50751462732998 0.6184083626909587 0  -2.565685424948549 0.5656854249499272 0  -2.61840836268981 0.5075146273313792 0  -2.665175689841831 0.4444561864159886 0  -2.705537011478692 0.3771173894607835 0  -2.739103626009108 0.3061467458918818 0  -2.76555226858589 0.2322277418031643 0  -2.784628224322724 0.1560722576122001 0  -2.796147781337853 0.07841371226267957 0  0.6720367661319522 0.1312687487860887 0  -4.389489086394485 0.3544472233398538 0  -3.816221554046232 -0.6097988664512611 0  -3.552726516474419 0.9342959806851625 0  -0.2536610443052337 0.8162373554653355 0  -0.1843238977799138 -0.6649951410982842 0  -3.613359951620445 0.1086570650978273 0  -3.146954163409593 -1.074378179335012 0  -0.4255266515582625 0.07734891565364931 0  -0.9413731612925856 1.168014724254929 0  -2.947764053183577 1.200029094390044 0  -0.8319852757411681 -1.058626838707328 0  2.675418990747819 -1.137325591670363e-12 0  -2.602010642259726 -1.287560129290477 0  -2.334401622060699 1.335006108940604 0  -1.524718496628401 1.32890816230333 0  -1.369813829148039 -1.26145150481762 0  -3.294065651892671 -0.4630240940010318 0  -2.072749204569071 -1.388981302138359 0  -0.7546165313921411 0.5601792161340381 0  -3.224879719581335 0.4382689715877901 0  -0.7073137361349826 -0.4625305410752652 0  4.326242945813966 0.3262429458150917 0  -3.187880061217201 0.07437712177460168 0  -2.94792024259867 0.7030255657465158 0  -2.678809277907896 0.9152683582887104 0  -4.911626141576894 -0.5700186648601188 0  -2.980647654587299 -0.5685006168686053 0  -2.769438919323564 -0.8202775213660614 0  -1.936950121013948 1.220669938589229 0  -0.8971643766260747 0.2762459428874499 0  -0.8760878018253068 -0.06836412137772707 0  -1.086827485441145 0.6772548942594016 0  -1.31355927028917 0.8808768148414213 0  -1.034266382739347 -0.5912381576649568 0  -1.241594139118264 -0.836771920085274 0  1.667161185638911 -0.6367996576268693 0  1.778189842800902 0.7191719841256095 0  -3.065106827511819 -0.266795371500425 0  3.714311277362231 -0.7275465302492842 0  -1.728329421201519 -1.09954751473283 0  4.870629493137888 -0.7325040699186681 0  -3.024707894719303 0.2567561910603656 0  -4.375540207252226 1.228935704312058 0  -2.272077148001781 -1.086192861256262 0  3.351408248797803 0.9175227128129597 0  -5.141847419540732 0.8091901960109126 0  0.5769368286199241 1.111816231125821 0  0.7411482978492124 -1.079569101289617 0  -1.074013749991219 0.430231207546053 0  -1.04664573441257 -0.3358382377487088 0  -2.439195336951085 0.9224778883059374 0  -2.902607676587358 0.4360473765597399 0  -1.629450174302152 1.035617385691805 0  -2.146859933125513 1.032375363966426 0  2.587625196444542 -0.9999926061845814 0  -2.529286802957126 -0.8830616815739111 0  -1.493798157676768 -0.8794705728517196 0  -1.932158132383022 -1.026681566564148 0  -4.09956359341904 -0.1372485582942864 0  5.055802064425553 1.050933510837308 0  -4.413659685984891 -1.207626391697488 0  -4.961411026474009 0.1201902955685026 0  -3.771151641156835 -1.303594976371997 0  -3.001321503506133 -0.04919177107285733 0  -3.881733605683001 0.5124517634812003 0  -0.1971627317996802 -1.336445372382849 0  -2.742825060181767 0.6732573903735507 0  2.520439429199979 1.129372838786189 0  -1.026326428668429 0.1384273198437734 0  -2.779290004861729 -0.5844691722665721 0  -2.895095740820851 -0.4261289730972082 0  -1.275682076193407 0.6630703172777138 0  0.1045291701958869 0.3433373435296472 0  5.175560481258801 0.0608563229178163 0  -1.211574424201636 -0.5847362589868093 0  -1.85847006217035 1.007917631940711 0  4.152535916385823 1.131901130662082 0  -1.04878257200685 -0.1253529988863012 0  1.432836501626023 0.05634449574318775 0  3.560672936003603 0.01188897172456759 0  -3.351823698389408 -0.1821329582635926 0  -5.145153363200735 -1.259166339382508 0  0.03473693330309885 -0.1724947236036572 0  -4.377830921337186 -0.6172564090242229 0  -0.3943750728122595 1.410897156959435 0  -1.661073679471639 -0.9342065000197183 0  -1.49086536677686 0.8331714487926741 0  -2.584486130952032 0.7871482690034864 0  4.270535884593893 -1.259607924744415 0  -1.757417028085795 -1.505182186951191 0  -3.430586920998477 1.425579221231371 0  -2.917598827418652 -0.2298465409534677 0  -2.328978331116049 -0.9300959620317677 0  -2.148543000691344 -0.9751580214451921 0  1.002654111360038 -0.4521702885594788 0  -4.628651824080903 -0.1127998710567241 0  -2.948904386702482 0.1555943115410545 0  0.4165242577134774 -0.5629432649478633 0  -3.698137692471105 -0.3173027948676715 0  -3.491400684461791 -0.7926319721650269 0  -0.3844454817728994 0.4680628696134375 0  -3.207830713508533 0.9778749990559993 0  3.229909751065535 -1.326302454776001 0  5.330007715336748 -1.312905173261894 0  -2.649214054100534 -0.713314536278899 0  1.342022964818772 -1.328315248672686 0  -2.556460939068198 1.202372762828344 0  -0.3497819755044588 -0.3080427614060888 0  -4.928440909495523 1.387622767511967 0  1.309170811945155 1.337467055109531 0  -1.352031940181449 -0.7151198948590243 0  -0.6132855723904642 0.9519045895123004 0  4.266838388406324 -0.3707357390867402 0  -3.834389788310238 1.371594798941152 0  -1.187890214580146 0.4851427123079557 0  -1.109118888029193 0.3185947354467283 0  0.1837819401738013 1.234799661476361 0  1.108165254659559 0.6237223548284967 0  -0.5266600156584522 -0.8113991260886402 0  -4.643822083543982 0.7834094684931707 0  -1.146235204666366 -0.4027330721405781 0  2.049029845992713 -0.2664662499985428 0  2.002665761665898 -1.328912351029848 0  -1.678783505586872 0.8978832065736417 0  -2.049499525232052 0.9483890761590005 0  -2.229972236535132 0.9181006323151361 0  -3.033763529945482 -1.54240494280775 0  -3.562344364746847 0.5622550957224539 0  -5.524396842903405 -0.2709714867672603 0  -0.9710982764034376 -1.549038578476423 0  3.058819320130555 -0.5375106252795963 0  -4.170365230099585 0.7342553699229977 0  -1.045878746461381 -8.187420622554697e-05 0  -1.864822945411764 -0.9219031104673102 0  -0.6251005091687033 -0.2120650512195049 0  2.317562622406059 0.4886417799113238 0  -0.6674371191466613 0.1483993095055008 0  -2.705757882979874 1.609712312948224 0  
[...]
<PointData  Vectors="f_22"> 
<DataArray  type="Float64"  Name="f_22"  NumberOfComponents="3" format="ascii">0.0000000000000000e+00 0.0000000000000000e+00 0.0000000000000000e+00  0.0000000000000000e+00 0.0000000000000000e+00 0.0000000000000000e+00  0.0000000000000000e+00 0.0000000000000000e+00 0.0000000000000000e+00  0.0000000000000000e+00 0.0000000000000000e+00 0.0000000000000000e+00  9.9999997917777173e-01 0.0000000000000000e+00 0.0000000000000000e+00  9.9999997917777173e-01 0.0000000000000000e+00 0.0000000000000000e+00  0.0000000000000000e+00 0.0000000000000000e+00 0.0000000000000000e+00  0.0000000000000000e+00 0.0000000000000000e+00 0.0000000000000000e+00  0.0000000000000000e+00 0.0000000000000000e+00 0.0000000000000000e+00  0.0000000000000000e+00 0.0000000000000000e+00 0.0000000000000000e+00  0.0000000000000000e+00 0.0000000000000000e+00 0.0000000000000000e+00  0.0000000000000000e+00 0.0000000000000000e+00 0.0000000000000000e+00  0.0000000000000000e+00 0.0000000000000000e+00 0.0000000000000000e+00  0.0000000000000000e+00 0.0000000000000000e+00 0.0000000000000000e+00  0.0000000000000000e+00 0.0000000000000000e+00 0.0000000000000000e+00  0.0000000000000000e+00 0.0000000000000000e+00 0.0000000000000000e+00  0.0000000000000000e+00 0.0000000000000000e+00 0.0000000000000000e+00  0.0000000000000000e+00 0.0000000000000000e+00 0.0000000000000000e+00  0.0000000000000000e+00 0.0000000000000000e+00 0.0000000000000000e+00  0.0000000000000000e+00 0.0000000000000000e+00 0.0000000000000000e+00  0.0000000000000000e+00 0.0000000000000000e+00 0.0000000000000000e+00  0.0000000000000000e+00 0.0000000000000000e+00 0.0000000000000000e+00  0.0000000000000000e+00 0.0000000000000000e+00 0.0000000000000000e+00  0.0000000000000000e+00 0.0000000000000000e+00 0.0000000000000000e+00  0.0000000000000000e+00 0.0000000000000000e+00 0.0000000000000000e+00  0.0000000000000000e+00 0.0000000000000000e+00 0.0000000000000000e+00  0.0000000000000000e+00 0.0000000000000000e+00 0.0000000000000000e+00  0.0000000000000000e+00 0.0000000000000000e+00 0.0000000000000000e+00  0.0000000000000000e+00 0.0000000000000000e+00 0.0000000000000000e+00  2.1536296022152904e-01 1.5857605613713911e-04 0.0000000000000000e+00  2.2283124042302555e-01 2.1361340772829332e-04 0.0000000000000000e+00  2.2333785906443912e-01 2.7784411056339076e-05 0.0000000000000000e+00  2.2333233962188215e-01 1.3612698720264371e-05 0.0000000000000000e+00  2.2327348149184881e-01 -1.6165802259522448e-05 0.0000000000000000e+00  2.2311642917126764e-01 1.6128982118904291e-04 0.0000000000000000e+00  2.1605241808928610e-01 -2.6843434204558024e-04 0.0000000000000000e+00  0.0000000000000000e+00 0.0000000000000000e+00 0.0000000000000000e+00  0.0000000000000000e+00 0.0000000000000000e+00 0.0000000000000000e+00  0.0000000000000000e+00 0.0000000000000000e+00 0.0000000000000000e+00  0.0000000000000000e+00 0.0000000000000000e+00 0.0000000000000000e+00  0.0000000000000000e+00 0.0000000000000000e+00 0.0000000000000000e+00  0.0000000000000000e+00 0.0000000000000000e+00 0.0000000000000000e+00  0.0000000000000000e+00 0.0000000000000000e+00 0.0000000000000000e+00  0.0000000000000000e+00 0.0000000000000000e+00 0.0000000000000000e+00  0.0000000000000000e+00 0.0000000000000000e+00 0.0000000000000000e+00  0.0000000000000000e+00 0.0000000000000000e+00 0.0000000000000000e+00  0.0000000000000000e+00 0.0000000000000000e+00 0.0000000000000000e+00  0.0000000000000000e+00 0.0000000000000000e+00 0.0000000000000000e+00  0.0000000000000000e+00 0.0000000000000000e+00 0.0000000000000000e+00  0.0000000000000000e+00 0.0000000000000000e+00 0.0000000000000000e+00  0.0000000000000000e+00 0.0000000000000000e+00 0.0000000000000000e+00  0.0000000000000000e+00 0.0000000000000000e+00 0.0000000000000000e+00  0.0000000000000000e+00 0.0000000000000000e+00 0.0000000000000000e+00  0.0000000000000000e+00 0.0000000000000000e+00 0.0000000000000000e+00  0.0000000000000000e+00 0.0000000000000000e+00 0.0000000000000000e+00  0.0000000000000000e+00 0.0000000000000000e+00 0.0000000000000000e+00  0.0000000000000000e+00 0.0000000000000000e+00 0.0000000000000000e+00  0.0000000000000000e+00 0.0000000000000000e+00 0.0000000000000000e+00  0.0000000000000000e+00 0.0000000000000000e+00 0.0000000000000000e+00  2.1262746432202365e-01 -7.2621804843693246e-04 0.0000000000000000e+00  2.2114561795529999e-01 -8.3714096500860612e-04 0.0000000000000000e+00  2.2760797036731636e-01 -9.2211740087475035e-04 0.0000000000000000e+00  2.3068661495098863e-01 4.8530050310008159e-04 0.0000000000000000e+00  2.2828667351083323e-01 5.4273693766438097e-04 0.0000000000000000e+00  2.2177388576469936e-01 9.5096281489658627e-04 0.0000000000000000e+00  2.1239715248561686e-01 6.8735239176574584e-04 0.0000000000000000e+00  9.9999997917777173e-01 0.0000000000000000e+00 0.0000000000000000e+00  9.9999997917777173e-01 0.0000000000000000e+00 0.0000000000000000e+00  9.9999997917777173e-01 0.0000000000000000e+00 0.0000000000000000e+00  9.9999997917777173e-01 0.0000000000000000e+00 0.0000000000000000e+00  9.9999997917777173e-01 0.0000000000000000e+00 0.0000000000000000e+00  9.9999997917777173e-01 0.0000000000000000e+00 0.0000000000000000e+00  9.9999997917777173e-01 0.0000000000000000e+00 0.0000000000000000e+00  9.9999997917777173e-01 0.0000000000000000e+00 0.0000000000000000e+00  9.9999997917777173e-01 0.0000000000000000e+00 0.0000000000000000e+00  9.9999997917777173e-01 0.0000000000000000e+00 0.0000000000000000e+00  9.9999997917777173e-01 0.0000000000000000e+00 0.0000000000000000e+00  9.9999997917777173e-01 0.0000000000000000e+00 0.0000000000000000e+00  9.9999997917777173e-01 0.0000000000000000e+00 0.0000000000000000e+00  9.9999997917777173e-01 0.0000000000000000e+00 0.0000000000000000e+00  9.9999997917777173e-01 0.0000000000000000e+00 0.0000000000000000e+00  9.9999997917777173e-01 0.0000000000000000e+00 0.0000000000000000e+00  9.9999997917777173e-01 0.0000000000000000e+00 0.0000000000000000e+00  9.9999997917777173e-01 0.0000000000000000e+00 0.0000000000000000e+00  9.9999997917777173e-01 0.0000000000000000e+00 0.0000000000000000e+00  9.9999997917777173e-01 0.0000000000000000e+00 0.0000000000000000e+00  9.9999997917777173e-01 0.0000000000000000e+00 0.0000000000000000e+00  9.9999997917777173e-01 0.0000000000000000e+00 0.0000000000000000e+00  9.9999997917777173e-01 0.0000000000000000e+00 0.0000000000000000e+00  9.9999997917777173e-01 0.0000000000000000e+00 0.0000000000000000e+00  9.9999997917777173e-01 0.0000000000000000e+00 0.0000000000000000e+00  9.9999997917777173e-01 0.0000000000000000e+00 0.0000000000000000e+00  9.9999997917777173e-01 0.0000000000000000e+00 0.0000000000000000e+00  9.9999997917777173e-01 0.0000000000000000e+00 0.0000000000000000e+00  9.9999997917777173e-01 0.0000000000000000e+00 0.0000000000000000e+00  9.9999997917777173e-01 0.0000000000000000e+00 0.0000000000000000e+00  9.9999997917777173e-01 0.0000000000000000e+00 0.0000000000000000e+00  9.9999997917777173e-01 0.0000000000000000e+00 0.0000000000000000e+00  9.9999997917777173e-01 0.0000000000000000e+00 0.0000000000000000e+00  9.9999997917777173e-01 0.0000000000000000e+00 0.0000000000000000e+00  9.9999997917777173e-01 0.0000000000000000e+00 0.0000000000000000e+00  9.9999997917777173e-01 0.0000000000000000e+00 0.0000000000000000e+00  9.9999997917777173e-01 0.0000000000000000e+00 0.0000000000000000e+00  9.9999997917777173e-01 0.0000000000000000e+00 0.0000000000000000e+00  9.9999997917777173e-01 0.0000000000000000e+00 0.0000000000000000e+00  9.9999997917777173e-01 0.0000000000000000e+00 0.0000000000000000e+00  9.9999997917777173e-01 0.0000000000000000e+00 0.0000000000000000e+00  9.9999997917777173e-01 0.0000000000000000e+00 0.0000000000000000e+00  9.9999997917777173e-01 0.0000000000000000e+00 0.0000000000000000e+00  9.9999997917777173e-01 0.0000000000000000e+00 0.0000000000000000e+00  9.9999997917777173e-01 0.0000000000000000e+00 0.0000000000000000e+00  9.9999997917777173e-01 0.0000000000000000e+00 0.0000000000000000e+00  9.9999997917777173e-01 0.0000000000000000e+00 0.0000000000000000e+00  9.9999997917777173e-01 0.0000000000000000e+00 0.0000000000000000e+00  9.9999997917777173e-01 0.0000000000000000e+00 0.0000000000000000e+00  9.9999997917777173e-01 0.0000000000000000e+00 0.0000000000000000e+00  9.9999997917777173e-01 0.0000000000000000e+00 0.0000000000000000e+00  9.9999997917777173e-01 0.0000000000000000e+00 0.0000000000000000e+00  9.9999997917777173e-01 0.0000000000000000e+00 0.0000000000000000e+00  9.9999997917777173e-01 0.0000000000000000e+00 0.0000000000000000e+00  9.9999997917777173e-01 0.0000000000000000e+00 0.0000000000000000e+00  9.9999997917777173e-01 0.0000000000000000e+00 0.0000000000000000e+00  9.9999997917777173e-01 0.0000000000000000e+00 0.0000000000000000e+00  9.9999997917777173e-01 0.0000000000000000e+00 0.0000000000000000e+00  9.9999997917777173e-01 0.0000000000000000e+00 0.0000000000000000e+00  9.9999997917777173e-01 0.0000000000000000e+00 0.0000000000000000e+00  9.9999997917777173e-01 0.0000000000000000e+00 0.0000000000000000e+00  9.9999997917777173e-01 0.0000000000000000e+00 0.0000000000000000e+00  4.0462616484866931e-01 4.3334429026874267e-02 0.0000000000000000e+00  2.4709848016435440e-01 -1.6384024626531376e-02 0.0000000000000000e+00  2.5608865243373380e-01 7.2625639067716921e-02 0.0000000000000000e+00  1.9650233274128781e-01 -1.1436411837015707e-01 0.0000000000000000e+00  3.6612540666338234e-01 2.7219682531180467e-01 0.0000000000000000e+00  4.7834509362000260e-01 -2.2725196033513814e-01 0.0000000000000000e+00  3.4411866178757661e-01 -2.6111309343830821e-02 0.0000000000000000e+00  8.6388397504808437e-02 1.8991497355402007e-01 0.0000000000000000e+00  8.0811369377658582e-01 2.6812265822961191e-02 0.0000000000000000e+00  -8.4101199682994385e-02 3.1594598738813207e-01 0.0000000000000000e+00  -2.6104997920501249e-02 -1.9189491738236045e-01 0.0000000000000000e+00  1.5257771404744327e-01 -3.4491618173242417e-01 0.0000000000000000e+00  2.2861587057678356e-01 -4.2086433683288076e-05 0.0000000000000000e+00  -2.2743504952856805e-01 3.0140105657776162e-01 0.0000000000000000e+00  -4.2894750058067244e-01 -3.4862670252412487e-01 0.0000000000000000e+00  -6.3763968059543219e-01 -1.0368352748310930e-01 0.0000000000000000e+00  -4.8731186898228351e-01 -5.7871686305158952e-02 0.0000000000000000e+00  3.4874391710854574e-01 1.8456002378209713e-01 0.0000000000000000e+00  -5.4901194324146019e-01 3.3137150208444516e-01 0.0000000000000000e+00  7.4512921826329126e-01 1.8252987096611650e-01 0.0000000000000000e+00  3.7413612267847368e-01 -2.1007101782596962e-01 0.0000000000000000e+00  7.8905353838816850e-01 -1.4990748669048681e-01 0.0000000000000000e+00  2.2357555779271673e-01 1.5022466853186690e-04 0.0000000000000000e+00  5.1919622584349745e-01 -4.9551773244195782e-02 0.0000000000000000e+00  2.0314093698991023e-01 -4.0186196700590870e-01 0.0000000000000000e+00  -8.8421746471484333e-02 -4.9291822604100355e-01 0.0000000000000000e+00  2.3041320910263477e-01 8.6244048880631634e-03 0.0000000000000000e+00  3.2894936806646424e-01 3.8902758246206010e-01 0.0000000000000000e+00  4.1008730886302233e-02 4.9655876363314971e-01 0.0000000000000000e+00  -5.1583965711618041e-01 -3.5886529252842930e-01 0.0000000000000000e+00  9.2441830741634357e-01 7.0716563451637030e-02 0.0000000000000000e+00  9.4905690019835087e-01 -1.7941082640710725e-02 0.0000000000000000e+00  8.0801653634782455e-01 1.7416937379090647e-01 0.0000000000000000e+00  6.1094453808473748e-01 1.6520366998835878e-01 0.0000000000000000e+00  8.3707426565804843e-01 -1.5086995646310325e-01 0.0000000000000000e+00  7.0006609737186343e-01 -1.8865859964937506e-01 0.0000000000000000e+00  2.3585697976642864e-01 -2.8121457149454989e-02 0.0000000000000000e+00  2.3104059416011333e-01 2.4577404534831440e-02 0.0000000000000000e+00  5.3640671031256126e-01 2.2404539664336667e-01 0.0000000000000000e+00  2.2353942309442304e-01 -8.2274249640489820e-04 0.0000000000000000e+00  -2.7496081072271789e-01 2.2353019374822866e-01 0.0000000000000000e+00  2.2326258927083756e-01 -9.7930938145239301e-05 0.0000000000000000e+00  5.6903997939160944e-01 -2.4357947802005064e-01 0.0000000000000000e+00  2.0775321252390952e-01 -2.1845455161254999e-02 0.0000000000000000e+00  -3.8466025290760758e-01 4.7967370931914100e-01 0.0000000000000000e+00  2.2256131444355079e-01 1.5203400534787460e-03 0.0000000000000000e+00  2.2492195396724476e-01 -5.4611202072239688e-03 0.0000000000000000e+00  1.3179936870850875e-01 1.6878430845751827e-01 0.0000000000000000e+00  1.6754176362855411e-01 -1.3947668804736502e-01 0.0000000000000000e+00  9.2705525447950698e-01 8.4620157234580884e-02 0.0000000000000000e+00  9.4931403765065858e-01 -6.4164272271313147e-02 0.0000000000000000e+00  -2.4025853063045433e-01 -5.7423088325967864e-01 0.0000000000000000e+00  4.7886445262643212e-01 -4.2072394654170819e-01 0.0000000000000000e+00  -3.3280337424410784e-02 -1.0462697800741390e-01 0.0000000000000000e+00  -3.7296301163983719e-01 -4.3148129187679291e-01 0.0000000000000000e+00  2.2166965974363478e-01 -6.1466768373299625e-03 0.0000000000000000e+00  -1.3772364925933570e-01 5.7573289635325886e-01 0.0000000000000000e+00  6.0591295492872710e-01 -5.2992958821904371e-02 0.0000000000000000e+00  -2.3822284651777784e-01 2.9977923501934467e-01 0.0000000000000000e+00  2.7130036006031816e-01 1.2310524005402092e-02 0.0000000000000000e+00  2.2203625746517053e-01 3.6656449253834962e-04 0.0000000000000000e+00  2.0901862034956295e-01 2.1417182783483767e-02 0.0000000000000000e+00  2.3526184993896460e-01 -1.6174167811836659e-03 0.0000000000000000e+00  1.7000575573887250e-01 5.0193534223890508e-02 0.0000000000000000e+00  6.8635094673701036e-01 4.2233743825406150e-02 0.0000000000000000e+00  2.6436972958982402e-01 -5.7718462017405242e-02 0.0000000000000000e+00  -1.4613095514874005e-01 -2.7841890842159550e-01 0.0000000000000000e+00  1.7406384404792405e-01 -5.7954113681805797e-01 0.0000000000000000e+00  2.1830484185333943e-01 6.9116932317940501e-03 0.0000000000000000e+00  9.7766501712528187e-01 2.3877189334397506e-02 0.0000000000000000e+00  3.0222614227424943e-01 5.6691500916739379e-01 0.0000000000000000e+00  5.0205807569264216e-01 4.1246510655114066e-01 0.0000000000000000e+00  9.0331071220194803e-01 1.0072177754282992e-01 0.0000000000000000e+00  5.6329570079332103e-01 1.2314525261592139e-01 0.0000000000000000e+00  2.2338075543970054e-01 5.6910929414753237e-05 0.0000000000000000e+00  9.1092700482064404e-01 -9.4840357470829542e-02 0.0000000000000000e+00  -1.4124421667935744e-01 -2.3765617788882185e-01 0.0000000000000000e+00  2.2163473602345524e-01 4.5158371088087004e-04 0.0000000000000000e+00  9.8279557761161640e-01 -2.0230037440813482e-02 0.0000000000000000e+00  2.7177847940762256e-01 5.3510078932555213e-03 0.0000000000000000e+00  2.2446477138064791e-01 -2.9944824043396724e-05 0.0000000000000000e+00  4.1880251304324206e-01 7.7535963719720546e-02 0.0000000000000000e+00  2.1700904815716932e-01 5.0455878059586512e-03 0.0000000000000000e+00  6.3023796286432388e-01 -6.1511655678616071e-02 0.0000000000000000e+00  2.3696671435171723e-01 2.5401856394814872e-02 0.0000000000000000e+00  -2.3996476730319546e-01 2.7933710814735335e-01 0.0000000000000000e+00  2.9333836738039648e-01 4.7828141843716941e-02 0.0000000000000000e+00  7.6577955830409150e-01 6.2574012502488299e-02 0.0000000000000000e+00  -6.0920310555804554e-02 -6.4417678427310199e-01 0.0000000000000000e+00  2.2135469820074080e-01 -3.3315936244823335e-04 0.0000000000000000e+00  -7.3356150462994407e-01 2.2206950893660932e-01 0.0000000000000000e+00  1.1516654392015588e-01 -5.3613730502727164e-02 0.0000000000000000e+00  6.8016984272356751e-01 2.8774665605095434e-01 0.0000000000000000e+00  -2.9339724316686072e-01 5.3796074585150744e-01 0.0000000000000000e+00  -3.1809167756985929e-01 4.1489870953952590e-01 0.0000000000000000e+00  2.8903495749397778e-01 -7.4854079411342131e-02 0.0000000000000000e+00  2.4268122094392483e-01 3.8700545294214159e-03 0.0000000000000000e+00  7.0574023195938840e-01 -1.8456825276719538e-01 0.0000000000000000e+00  3.6524489228608242e-01 -1.8654651843760514e-01 0.0000000000000000e+00  3.0779719639613912e-01 5.9883266483506586e-02 0.0000000000000000e+00  2.2439928507048643e-01 1.3775214040149497e-01 0.0000000000000000e+00  6.7576731371096976e-01 1.6432697345507954e-01 0.0000000000000000e+00  1.3214856317183710e-01 -1.9675212242119261e-01 0.0000000000000000e+00  2.1973690558619341e-01 -1.5008651934188824e-03 0.0000000000000000e+00  2.2110095682461778e-01 -9.7119660411137699e-05 0.0000000000000000e+00  6.2798020472258770e-02 6.4985441453535553e-01 0.0000000000000000e+00  1.8424002037238135e-01 -4.0100193861782971e-02 0.0000000000000000e+00  -2.5966194008412896e-01 -3.6276652430931045e-01 0.0000000000000000e+00  7.3209971738393220e-01 -1.0863913079191455e-01 0.0000000000000000e+00  2.1205446809020631e-01 -6.7298938598998248e-03 0.0000000000000000e+00  1.8009398877499916e-01 4.1769265497924979e-02 0.0000000000000000e+00  9.1278885875120164e-01 -9.0253261791352832e-02 0.0000000000000000e+00  2.8615795863815668e-01 3.1400756276542729e-01 0.0000000000000000e+00  2.2362600347998379e-01 -2.3135166043584344e-04 0.0000000000000000e+00  1.7076940822689385e-01 -3.8766193379621047e-02 0.0000000000000000e+00  9.4210131206037262e-01 6.9426328434336521e-02 0.0000000000000000e+00  9.6815868318891773e-01 4.6580134768415403e-02 0.0000000000000000e+00  1.3868363327463057e-02 2.4508851597833095e-01 0.0000000000000000e+00  2.6007491309601027e-01 7.4772390901426580e-02 0.0000000000000000e+00  4.4102319233943116e-01 -2.7434160988012812e-01 0.0000000000000000e+00  2.2745019463629035e-01 -1.6565339311216145e-02 0.0000000000000000e+00  9.5707593186358542e-01 -5.7928714366561343e-02 0.0000000000000000e+00  2.3796917183766125e-01 -7.3899160393083377e-03 0.0000000000000000e+00  2.0972901846811978e-01 -1.2380695633664824e-02 0.0000000000000000e+00  4.4388532215411169e-01 -2.4647225957280652e-02 0.0000000000000000e+00  -2.2745437228239762e-01 -3.0774478356696805e-01 0.0000000000000000e+00  -3.2007042035731131e-01 -4.8016015009219226e-01 0.0000000000000000e+00  2.2538306212524166e-02 5.4795987692989427e-02 0.0000000000000000e+00  2.8021093110786632e-01 -1.1434573266950999e-01 0.0000000000000000e+00  2.2982411982613993e-01 7.9108693729984850e-04 0.0000000000000000e+00  -5.9826699573772557e-01 -1.4911766902651011e-01 0.0000000000000000e+00  2.2481651178831449e-01 -2.1642907318286950e-03 0.0000000000000000e+00  2.3384714138549270e-01 -3.9416611776983121e-02 0.0000000000000000e+00  9.8604066536402235e-01 -7.9813508540104290e-05 0.0000000000000000e+00  1.1827784407653805e-01 1.2195283446613894e-01 0.0000000000000000e+00  8.5406609896475749e-01 -6.8694085244153311e-02 0.0000000000000000e+00  2.2985384274526241e-01 7.6578677074756185e-03 0.0000000000000000e+00  8.8185852335768922e-01 4.6921050990588367e-02 0.0000000000000000e+00  -7.3358790784720032e-02 -7.1621608166050996e-02 0.0000000000000000e+00  2.0362792237269153e-01 1.2790962897468679e-02 0.0000000000000000e+00  3.4361497797759266e-01 -5.7080120971840487e-01 0.0000000000000000e+00  6.2996778692294408e-01 -4.2010832740480564e-01 0.0000000000000000e+00  8.9656012212800840e-01 -7.7768231394581513e-02 0.0000000000000000e+00  2.3197372771034094e-01 2.3939877632705650e-01 0.0000000000000000e+00  2.1814833405528933e-01 -1.1196787376839277e-03 0.0000000000000000e+00  7.4611850596253984e-02 -2.8103103884114433e-01 0.0000000000000000e+00  -7.2986005356657357e-01 7.4839109926718175e-02 0.0000000000000000e+00  2.4257774937647789e-01 -2.3838505055182371e-01 0.0000000000000000e+00  -5.9496433226220702e-01 -1.4301858832598022e-01 0.0000000000000000e+00  2.8793515526843749e-01 -1.6358364881541836e-02 0.0000000000000000e+00  9.0546512266496226e-01 8.6578527613911757e-02 0.0000000000000000e+00  8.4066479815457174e-01 1.1183142906811250e-01 0.0000000000000000e+00  5.7428902596248799e-01 4.1227920477186170e-01 0.0000000000000000e+00  5.3790972183319674e-01 2.9275501642660950e-01 0.0000000000000000e+00  9.8579980279529822e-01 -2.5347079274