<?xml version="1.0"?>
<VTKFile type="UnstructuredGrid"  version="0.1"  >
<UnstructuredGrid>
<Piece  NumberOfPoints="622" NumberOfCells="1116">
<Points>
<DataArray  type="Float64"  NumberOfComponents="3"  format="ascii">-6 -2 0  -6 2 0  6 2 0  6 -2 0  -2.8 0 0  -1.2 0 0  -5.500000000001853 -2 0  -5.000000000003705 -2 0  -4.500000000005556 -2 0  -4.000000000007409 -2 0  -3.50000000000926 -2 0  -3.000000000011112 -2 0  -2.500000000012963 -2 0  -2.000000000014814 -2 0  -1.500000000016665 -2 0  -1.000000000018516 -2 0  -0.5000000000203677 -2 0  -2.204547655537681e-11 -2 0  0.4999999999796305 -2 0  0.9999999999814779 -2 0  1.499999999983327 -2 0  1.999999999985175 -2 0  2.499999999987029 -2 0  2.999999999988882 -2 0  3.499999999990735 -2 0  3.999999999992589 -2 0  4.49999999999444 -2 0  4.999999999996293 -2 0  5.499999999998147 -2 0  6 -1.500000000001387 0  6 -1.000000000002774 0  6 -0.5000000000041616 0  6 -5.505595979116151e-12 0  6 0.4999999999958384 0  6 0.9999999999972258 0  6 1.499999999998613 0  5.500000000001853 2 0  5.000000000003705 2 0  4.500000000005556 2 0  4.000000000007409 2 0  3.50000000000926 2 0  3.000000000011112 2 0  2.500000000012963 2 0  2.000000000014814 2 0  1.500000000016665 2 0  1.000000000018516 2 0  0.5000000000203677 2 0  2.204547655537681e-11 2 0  -0.4999999999796305 2 0  -0.9999999999814779 2 0  -1.499999999983327 2 0  -1.999999999985175 2 0  -2.499999999987029 2 0  -2.999999999988882 2 0  -3.499999999990735 2 0  -3.999999999992589 2 0  -4.49999999999444 2 0  -4.999999999996293 2 0  -5.499999999998147 2 0  -6 1.500000000001387 0  -6 1.000000000002774 0  -6 0.5000000000041616 0  -6 5.505595979116151e-12 0  -6 -0.4999999999958384 0  -6 -0.9999999999972258 0  -6 -1.499999999998613 0  -2.796147781337886 -0.07841371226233997 0  -2.784628224322852 -0.1560722576115546 0  -2.765552268586196 -0.2322277418021561 0  -2.739103626009626 -0.30614674589063 0  -2.705537011479457 -0.3771173894593519 0  -2.665175689843037 -0.4444561864141836 0  -2.618408362691456 -0.5075146273293722 0  -2.565685424950688 -0.5656854249477874 0  -2.507514627332613 -0.6184083626887972 0  -2.444456186417533 -0.6651756898407991 0  -2.377117389462776 -0.7055370114776264 0  -2.306146745894456 -0.7391036260080417 0  -2.232227741806235 -0.7655522685849585 0  -2.15607225761588 -0.784628224321992 0  -2.078413712266957 -0.7961477813374315 0  -2.000000000003407 -0.7999999999999998 0  -1.921586287739523 -0.7961477813380696 0  -1.843927742389945 -0.7846282243231506 0  -1.767772258198879 -0.7655522685865098 0  -1.693853254109962 -0.7391036260098718 0  -1.622882610540873 -0.7055370114795768 0  -1.555543813585629 -0.6651756898429115 0  -1.49248537267008 -0.6184083626910072 0  -1.434314575051535 -0.5656854249500112 0  -1.381591637310384 -0.5075146273316149 0  -1.334824310158267 -0.4444561864161359 0  -1.294462988521423 -0.3771173894609975 0  -1.260896373990956 -0.3061467458920351 0  -1.234447731414138 -0.2322277418032578 0  -1.215371775677287 -0.156072257612254 0  -1.203852218662147 -0.07841371226267954 0  -1.203852218662115 0.07841371226235888 0  -1.215371775677132 0.156072257611478 0  -1.234447731413795 0.232227741802127 0  -1.260896373990353 0.3061467458905811 0  -1.294462988520456 0.3771173894591898 0  -1.334824310156812 0.444456186413959 0  -1.381591637308413 0.5075146273292139 0  -1.434314575049147 0.5656854249476236 0  -1.492485372667197 0.6184083626886415 0  -1.555543813582104 0.6651756898405565 0  -1.62288261053673 0.7055370114773629 0  -1.693853254105125 0.7391036260078683 0  -1.767772258193396 0.7655522685848468 0  -1.84392774238373 0.7846282243219146 0  -1.921586287732977 0.7961477813374253 0  -1.999999999996558 0.8 0  -2.078413712260516 0.7961477813380661 0  -2.156072257610207 0.7846282243231205 0  -2.232227741801178 0.7655522685864928 0  -2.306146745890059 0.7391036260098632 0  -2.377117389459098 0.7055370114795929 0  -2.444456186414405 0.6651756898428894 0  -2.50751462732998 0.6184083626909587 0  -2.565685424948549 0.5656854249499272 0  -2.61840836268981 0.5075146273313792 0  -2.665175689841831 0.4444561864159886 0  -2.705537011478692 0.3771173894607835 0  -2.739103626009108 0.3061467458918818 0  -2.76555226858589 0.2322277418031643 0  -2.784628224322724 0.1560722576122001 0  -2.796147781337853 0.07841371226267957 0  0.6720367661319522 0.1312687487860887 0  -4.389489086394485 0.3544472233398538 0  -3.816221554046232 -0.6097988664512611 0  -3.552726516474419 0.9342959806851625 0  -0.2536610443052337 0.8162373554653355 0  -0.1843238977799138 -0.6649951410982842 0  -3.613359951620445 0.1086570650978273 0  -3.146954163409593 -1.074378179335012 0  -0.4255266515582625 0.07734891565364931 0  -0.9413731612925856 1.168014724254929 0  -2.947764053183577 1.200029094390044 0  -0.8319852757411681 -1.058626838707328 0  2.675418990747819 -1.137325591670363e-12 0  -2.602010642259726 -1.287560129290477 0  -2.334401622060699 1.335006108940604 0  -1.524718496628401 1.32890816230333 0  -1.369813829148039 -1.26145150481762 0  -3.294065651892671 -0.4630240940010318 0  -2.072749204569071 -1.388981302138359 0  -0.7546165313921411 0.5601792161340381 0  -3.224879719581335 0.4382689715877901 0  -0.7073137361349826 -0.4625305410752652 0  4.326242945813966 0.3262429458150917 0  -3.187880061217201 0.07437712177460168 0  -2.94792024259867 0.7030255657465158 0  -2.678809277907896 0.9152683582887104 0  -4.911626141576894 -0.5700186648601188 0  -2.980647654587299 -0.5685006168686053 0  -2.769438919323564 -0.8202775213660614 0  -1.936950121013948 1.220669938589229 0  -0.8971643766260747 0.2762459428874499 0  -0.8760878018253068 -0.06836412137772707 0  -1.086827485441145 0.6772548942594016 0  -1.31355927028917 0.8808768148414213 0  -1.034266382739347 -0.5912381576649568 0  -1.241594139118264 -0.836771920085274 0  1.667161185638911 -0.6367996576268693 0  1.778189842800902 0.7191719841256095 0  -3.065106827511819 -0.266795371500425 0  3.714311277362231 -0.7275465302492842 0  -1.728329421201519 -1.09954751473283 0  4.870629493137888 -0.7325040699186681 0  -3.024707894719303 0.2567561910603656 0  -4.375540207252226 1.228935704312058 0  -2.272077148001781 -1.086192861256262 0  3.351408248797803 0.9175227128129597 0  -5.141847419540732 0.8091901960109126 0  0.5769368286199241 1.111816231125821 0  0.7411482978492124 -1.079569101289617 0  -1.074013749991219 0.430231207546053 0  -1.04664573441257 -0.3358382377487088 0  -2.439195336951085 0.9224778883059374 0  -2.902607676587358 0.4360473765597399 0  -1.629450174302152 1.035617385691805 0  -2.146859933125513 1.032375363966426 0  2.587625196444542 -0.9999926061845814 0  -2.529286802957126 -0.8830616815739111 0  -1.493798157676768 -0.8794705728517196 0  -1.932158132383022 -1.026681566564148 0  -4.09956359341904 -0.1372485582942864 0  5.055802064425553 1.050933510837308 0  -4.413659685984891 -1.207626391697488 0  -4.961411026474009 0.1201902955685026 0  -3.771151641156835 -1.303594976371997 0  -3.001321503506133 -0.04919177107285733 0  -3.881733605683001 0.5124517634812003 0  -0.1971627317996802 -1.336445372382849 0  -2.742825060181767 0.6732573903735507 0  2.520439429199979 1.129372838786189 0  -1.026326428668429 0.1384273198437734 0  -2.779290004861729 -0.5844691722665721 0  -2.895095740820851 -0.4261289730972082 0  -1.275682076193407 0.6630703172777138 0  0.1045291701958869 0.3433373435296472 0  5.175560481258801 0.0608563229178163 0  -1.211574424201636 -0.5847362589868093 0  -1.85847006217035 1.007917631940711 0  4.152535916385823 1.131901130662082 0  -1.04878257200685 -0.1253529988863012 0  1.432836501626023 0.05634449574318775 0  3.560672936003603 0.01188897172456759 0  -3.351823698389408 -0.1821329582635926 0  -5.145153363200735 -1.259166339382508 0  0.03473693330309885 -0.1724947236036572 0  -4.377830921337186 -0.6172564090242229 0  -0.3943750728122595 1.410897156959435 0  -1.661073679471639 -0.9342065000197183 0  -1.49086536677686 0.8331714487926741 0  -2.584486130952032 0.7871482690034864 0  4.270535884593893 -1.259607924744415 0  -1.757417028085795 -1.505182186951191 0  -3.430586920998477 1.425579221231371 0  -2.917598827418652 -0.2298465409534677 0  -2.328978331116049 -0.9300959620317677 0  -2.148543000691344 -0.9751580214451921 0  1.002654111360038 -0.4521702885594788 0  -4.628651824080903 -0.1127998710567241 0  -2.948904386702482 0.1555943115410545 0  0.4165242577134774 -0.5629432649478633 0  -3.698137692471105 -0.3173027948676715 0  -3.491400684461791 -0.7926319721650269 0  -0.3844454817728994 0.4680628696134375 0  -3.207830713508533 0.9778749990559993 0  3.229909751065535 -1.326302454776001 0  5.330007715336748 -1.312905173261894 0  -2.649214054100534 -0.713314536278899 0  1.342022964818772 -1.328315248672686 0  -2.556460939068198 1.202372762828344 0  -0.3497819755044588 -0.3080427614060888 0  -4.928440909495523 1.387622767511967 0  1.309170811945155 1.337467055109531 0  -1.352031940181449 -0.7151198948590243 0  -0.6132855723904642 0.9519045895123004 0  4.266838388406324 -0.3707357390867402 0  -3.834389788310238 1.371594798941152 0  -1.187890214580146 0.4851427123079557 0  -1.109118888029193 0.3185947354467283 0  0.1837819401738013 1.234799661476361 0  1.108165254659559 0.6237223548284967 0  -0.5266600156584522 -0.8113991260886402 0  -4.643822083543982 0.7834094684931707 0  -1.146235204666366 -0.4027330721405781 0  2.049029845992713 -0.2664662499985428 0  2.002665761665898 -1.328912351029848 0  -1.678783505586872 0.8978832065736417 0  -2.049499525232052 0.9483890761590005 0  -2.229972236535132 0.9181006323151361 0  -3.033763529945482 -1.54240494280775 0  -3.562344364746847 0.5622550957224539 0  -5.524396842903405 -0.2709714867672603 0  -0.9710982764034376 -1.549038578476423 0  3.058819320130555 -0.5375106252795963 0  -4.170365230099585 0.7342553699229977 0  -1.045878746461381 -8.187420622554697e-05 0  -1.864822945411764 -0.9219031104673102 0  -0.6251005091687033 -0.2120650512195049 0  2.317562622406059 0.4886417799113238 0  -0.6674371191466613 0.1483993095055008 0  -2.705757882979874 1.609712312948224 0  
[...]
<PointData  Vectors="f_22"> 
<DataArray  type="Float64"  Name="f_22"  NumberOfComponents="3" format="ascii">0.0000000000000000e+00 0.0000000000000000e+00 0.0000000000000000e+00  0.0000000000000000e+00 0.0000000000000000e+00 0.0000000000000000e+00  0.0000000000000000e+00 0.0000000000000000e+00 0.0000000000000000e+00  0.0000000000000000e+00 0.0000000000000000e+00 0.0000000000000000e+00  9.9999997459998258e-01 0.0000000000000000e+00 0.0000000000000000e+00  9.9999997459998258e-01 0.0000000000000000e+00 0.0000000000000000e+00  0.0000000000000000e+00 0.0000000000000000e+00 0.0000000000000000e+00  0.0000000000000000e+00 0.0000000000000000e+00 0.0000000000000000e+00  0.0000000000000000e+00 0.0000000000000000e+00 0.0000000000000000e+00  0.0000000000000000e+00 0.0000000000000000e+00 0.0000000000000000e+00  0.0000000000000000e+00 0.0000000000000000e+00 0.0000000000000000e+00  0.0000000000000000e+00 0.0000000000000000e+00 0.0000000000000000e+00  0.0000000000000000e+00 0.0000000000000000e+00 0.0000000000000000e+00  0.0000000000000000e+00 0.0000000000000000e+00 0.0000000000000000e+00  0.0000000000000000e+00 0.0000000000000000e+00 0.0000000000000000e+00  0.0000000000000000e+00 0.0000000000000000e+00 0.0000000000000000e+00  0.0000000000000000e+00 0.0000000000000000e+00 0.0000000000000000e+00  0.0000000000000000e+00 0.0000000000000000e+00 0.0000000000000000e+00  0.0000000000000000e+00 0.0000000000000000e+00 0.0000000000000000e+00  0.0000000000000000e+00 0.0000000000000000e+00 0.0000000000000000e+00  0.0000000000000000e+00 0.0000000000000000e+00 0.0000000000000000e+00  0.0000000000000000e+00 0.0000000000000000e+00 0.0000000000000000e+00  0.0000000000000000e+00 0.0000000000000000e+00 0.0000000000000000e+00  0.0000000000000000e+00 0.0000000000000000e+00 0.0000000000000000e+00  0.0000000000000000e+00 0.0000000000000000e+00 0.0000000000000000e+00  0.0000000000000000e+00 0.0000000000000000e+00 0.0000000000000000e+00  0.0000000000000000e+00 0.0000000000000000e+00 0.0000000000000000e+00  0.0000000000000000e+00 0.0000000000000000e+00 0.0000000000000000e+00  0.0000000000000000e+00 0.0000000000000000e+00 0.0000000000000000e+00  3.1789086217276746e-01 1.4082148031067525e-04 0.0000000000000000e+00  3.5414819819698001e-01 1.4986014339640375e-04 0.0000000000000000e+00  3.5629167936437417e-01 -3.4415776800041590e-05 0.0000000000000000e+00  3.5643151364539483e-01 -1.6224589035195724e-05 0.0000000000000000e+00  3.5630115955713287e-01 -5.1429560115141985e-06 0.0000000000000000e+00  3.5481712034284352e-01 2.3310950926435257e-04 0.0000000000000000e+00  3.1847622919602031e-01 -5.4775022229731798e-04 0.0000000000000000e+00  0.0000000000000000e+00 0.0000000000000000e+00 0.0000000000000000e+00  0.0000000000000000e+00 0.0000000000000000e+00 0.0000000000000000e+00  0.0000000000000000e+00 0.0000000000000000e+00 0.0000000000000000e+00  0.0000000000000000e+00 0.0000000000000000e+00 0.0000000000000000e+00  0.0000000000000000e+00 0.0000000000000000e+00 0.0000000000000000e+00  0.0000000000000000e+00 0.0000000000000000e+00 0.0000000000000000e+00  0.0000000000000000e+00 0.0000000000000000e+00 0.0000000000000000e+00  0.0000000000000000e+00 0.0000000000000000e+00 0.0000000000000000e+00  0.0000000000000000e+00 0.0000000000000000e+00 0.0000000000000000e+00  0.0000000000000000e+00 0.0000000000000000e+00 0.0000000000000000e+00  0.0000000000000000e+00 0.0000000000000000e+00 0.0000000000000000e+00  0.0000000000000000e+00 0.0000000000000000e+00 0.0000000000000000e+00  0.0000000000000000e+00 0.0000000000000000e+00 0.0000000000000000e+00  0.0000000000000000e+00 0.0000000000000000e+00 0.0000000000000000e+00  0.0000000000000000e+00 0.0000000000000000e+00 0.0000000000000000e+00  0.0000000000000000e+00 0.0000000000000000e+00 0.0000000000000000e+00  0.0000000000000000e+00 0.0000000000000000e+00 0.0000000000000000e+00  0.0000000000000000e+00 0.0000000000000000e+00 0.0000000000000000e+00  0.0000000000000000e+00 0.0000000000000000e+00 0.0000000000000000e+00  0.0000000000000000e+00 0.0000000000000000e+00 0.0000000000000000e+00  0.0000000000000000e+00 0.0000000000000000e+00 0.0000000000000000e+00  0.0000000000000000e+00 0.0000000000000000e+00 0.0000000000000000e+00  0.0000000000000000e+00 0.0000000000000000e+00 0.0000000000000000e+00  3.1017226971489281e-01 -1.3613348685158379e-03 0.0000000000000000e+00  3.5113457106039320e-01 -9.2079116298671843e-04 0.0000000000000000e+00  3.6271302869773353e-01 -1.5988156788391502e-03 0.0000000000000000e+00  3.6920094469378634e-01 1.5437721086822634e-03 0.0000000000000000e+00  3.6414050325821018e-01 2.3504045016425166e-04 0.0000000000000000e+00  3.5302459664723229e-01 5.7016345614623357e-04 0.0000000000000000e+00  3.1002210435672095e-01 1.0407102662825082e-03 0.0000000000000000e+00  9.9999997459998258e-01 0.0000000000000000e+00 0.0000000000000000e+00  9.9999997459998258e-01 0.0000000000000000e+00 0.0000000000000000e+00  9.9999997459998258e-01 0.0000000000000000e+00 0.0000000000000000e+00  9.9999997459998258e-01 0.0000000000000000e+00 0.0000000000000000e+00  9.9999997459998258e-01 0.0000000000000000e+00 0.0000000000000000e+00  9.9999997459998258e-01 0.0000000000000000e+00 0.0000000000000000e+00  9.9999997459998258e-01 0.0000000000000000e+00 0.0000000000000000e+00  9.9999997459998258e-01 0.0000000000000000e+00 0.0000000000000000e+00  9.9999997459998258e-01 0.0000000000000000e+00 0.0000000000000000e+00  9.9999997459998258e-01 0.0000000000000000e+00 0.0000000000000000e+00  9.9999997459998258e-01 0.0000000000000000e+00 0.0000000000000000e+00  9.9999997459998258e-01 0.0000000000000000e+00 0.0000000000000000e+00  9.9999997459998258e-01 0.0000000000000000e+00 0.0000000000000000e+00  9.9999997459998258e-01 0.0000000000000000e+00 0.0000000000000000e+00  9.9999997459998258e-01 0.0000000000000000e+00 0.0000000000000000e+00  9.9999997459998258e-01 0.0000000000000000e+00 0.0000000000000000e+00  9.9999997459998258e-01 0.0000000000000000e+00 0.0000000000000000e+00  9.9999997459998258e-01 0.0000000000000000e+00 0.0000000000000000e+00  9.9999997459998258e-01 0.0000000000000000e+00 0.0000000000000000e+00  9.9999997459998258e-01 0.0000000000000000e+00 0.0000000000000000e+00  9.9999997459998258e-01 0.0000000000000000e+00 0.0000000000000000e+00  9.9999997459998258e-01 0.0000000000000000e+00 0.0000000000000000e+00  9.9999997459998258e-01 0.0000000000000000e+00 0.0000000000000000e+00  9.9999997459998258e-01 0.0000000000000000e+00 0.0000000000000000e+00  9.9999997459998258e-01 0.0000000000000000e+00 0.0000000000000000e+00  9.9999997459998258e-01 0.0000000000000000e+00 0.0000000000000000e+00  9.9999997459998258e-01 0.0000000000000000e+00 0.0000000000000000e+00  9.9999997459998258e-01 0.0000000000000000e+00 0.0000000000000000e+00  9.9999997459998258e-01 0.0000000000000000e+00 0.0000000000000000e+00  9.9999997459998258e-01 0.0000000000000000e+00 0.0000000000000000e+00  9.9999997459998258e-01 0.0000000000000000e+00 0.0000000000000000e+00  9.9999997459998258e-01 0.0000000000000000e+00 0.0000000000000000e+00  9.9999997459998258e-01 0.0000000000000000e+00 0.0000000000000000e+00  9.9999997459998258e-01 0.0000000000000000e+00 0.0000000000000000e+00  9.9999997459998258e-01 0.0000000000000000e+00 0.0000000000000000e+00  9.9999997459998258e-01 0.0000000000000000e+00 0.0000000000000000e+00  9.9999997459998258e-01 0.0000000000000000e+00 0.0000000000000000e+00  9.9999997459998258e-01 0.0000000000000000e+00 0.0000000000000000e+00  9.9999997459998258e-01 0.0000000000000000e+00 0.0000000000000000e+00  9.9999997459998258e-01 0.0000000000000000e+00 0.0000000000000000e+00  9.9999997459998258e-01 0.0000000000000000e+00 0.0000000000000000e+00  9.9999997459998258e-01 0.0000000000000000e+00 0.0000000000000000e+00  9.9999997459998258e-01 0.0000000000000000e+00 0.0000000000000000e+00  9.9999997459998258e-01 0.0000000000000000e+00 0.0000000000000000e+00  9.9999997459998258e-01 0.0000000000000000e+00 0.0000000000000000e+00  9.9999997459998258e-01 0.0000000000000000e+00 0.0000000000000000e+00  9.9999997459998258e-01 0.0000000000000000e+00 0.0000000000000000e+00  9.9999997459998258e-01 0.0000000000000000e+00 0.0000000000000000e+00  9.9999997459998258e-01 0.0000000000000000e+00 0.0000000000000000e+00  9.9999997459998258e-01 0.0000000000000000e+00 0.0000000000000000e+00  9.9999997459998258e-01 0.0000000000000000e+00 0.0000000000000000e+00  9.9999997459998258e-01 0.0000000000000000e+00 0.0000000000000000e+00  9.9999997459998258e-01 0.0000000000000000e+00 0.0000000000000000e+00  9.9999997459998258e-01 0.0000000000000000e+00 0.0000000000000000e+00  9.9999997459998258e-01 0.0000000000000000e+00 0.0000000000000000e+00  9.9999997459998258e-01 0.0000000000000000e+00 0.0000000000000000e+00  9.9999997459998258e-01 0.0000000000000000e+00 0.0000000000000000e+00  9.9999997459998258e-01 0.0000000000000000e+00 0.0000000000000000e+00  9.9999997459998258e-01 0.0000000000000000e+00 0.0000000000000000e+00  9.9999997459998258e-01 0.0000000000000000e+00 0.0000000000000000e+00  9.9999997459998258e-01 0.0000000000000000e+00 0.0000000000000000e+00  9.9999997459998258e-01 0.0000000000000000e+00 0.0000000000000000e+00  6.6587493122897579e-01 2.0740660500022868e-02 0.0000000000000000e+00  3.8013371075653357e-01 -1.2196577182066470e-02 0.0000000000000000e+00  3.8602774685879859e-01 5.7028583261522617e-02 0.0000000000000000e+00  3.4159571250607423e-01 -8.8434226165790109e-02 0.0000000000000000e+00  6.1127432692623540e-01 2.2680781959761698e-01 0.0000000000000000e+00  6.7978653087116903e-01 -1.6813463520035182e-01 0.0000000000000000e+00  4.5583363667215682e-01 -1.9377306075237140e-02 0.0000000000000000e+00  2.5598073150931822e-01 1.3139061924637568e-01 0.0000000000000000e+00  8.8642560968274342e-01 1.6176202895159239e-02 0.0000000000000000e+00  8.3484141695803066e-02 1.0813123123762276e-01 0.0000000000000000e+00  1.8136306662520546e-01 -1.1929444085630793e-01 0.0000000000000000e+00  3.6852180755159242e-01 -1.9216149462520599e-01 0.0000000000000000e+00  3.8850452530817825e-01 -1.7000902539396107e-04 0.0000000000000000e+00  3.8672170991480084e-02 1.5140878134930191e-01 0.0000000000000000e+00  -1.1568039075644918e-01 -2.2029969700440172e-01 0.0000000000000000e+00  -3.7730223779078936e-01 -2.4826062167955931e-01 0.0000000000000000e+00  -2.5618047275445016e-01 1.6592425342208728e-01 0.0000000000000000e+00  4.5490101503212921e-01 1.4674497743901233e-01 0.0000000000000000e+00  -2.7317536230616146e-01 2.6459152228667054e-01 0.0000000000000000e+00  9.0324620944526168e-01 1.1504330611949881e-01 0.0000000000000000e+00  4.7741577493726306e-01 -1.6423575004501420e-01 0.0000000000000000e+00  9.0375287976655705e-01 -9.5503550833430872e-02 0.0000000000000000e+00  3.5716828921396843e-01 7.1892485538600608e-04 0.0000000000000000e+00  5.9721913208403787e-01 -3.8388179084664908e-02 0.0000000000000000e+00  3.2669672598395394e-01 -3.0427439856203792e-01 0.0000000000000000e+00  7.6357312549764980e-02 -3.5082927434086486e-01 0.0000000000000000e+00  3.6568709998237209e-01 6.7069664455751358e-03 0.0000000000000000e+00  4.2416531537200086e-01 3.0926703118160470e-01 0.0000000000000000e+00  1.7053100487926839e-01 3.6459146392936098e-01 0.0000000000000000e+00  -3.1060926369703390e-01 -3.3155746270035208e-01 0.0000000000000000e+00  9.6377318514649946e-01 3.9579432505521595e-02 0.0000000000000000e+00  9.7232788833015449e-01 -1.0662737116280107e-02 0.0000000000000000e+00  9.8270209713451862e-01 7.1064563867257527e-02 0.0000000000000000e+00  6.7877908740789905e-01 8.4925891713341830e-03 0.0000000000000000e+00  9.7152178879247597e-01 -6.9450783515436751e-02 0.0000000000000000e+00  8.0709472002024663e-01 -3.5780156786542193e-02 0.0000000000000000e+00  4.2425619611730414e-01 -9.0265504809369776e-02 0.0000000000000000e+00  3.8968212209935232e-01 9.7791819989998877e-02 0.0000000000000000e+00  6.0727593350520437e-01 1.8608450897256207e-01 0.0000000000000000e+00  3.5641860211001070e-01 -3.8597599722602740e-03 0.0000000000000000e+00  -1.1911307017286744e-01 2.2520287223699734e-01 0.0000000000000000e+00  3.5607899265861503e-01 -3.6511849800945653e-04 0.0000000000000000e+00  6.3597415991838535e-01 -1.9966956923456242e-01 0.0000000000000000e+00  3.3583156055162783e-01 -1.9098240667325690e-02 0.0000000000000000e+00  -2.3669547454965773e-01 4.0629617644139820e-01 0.0000000000000000e+00  3.5170351090172847e-01 7.7548289095296739e-03 0.0000000000000000e+00  3.5797566167348122e-01 -4.4330596517657608e-03 0.0000000000000000e+00  2.6817980877844044e-01 1.3741290960451022e-01 0.0000000000000000e+00  2.8879095416266953e-01 -1.3290953403889944e-01 0.0000000000000000e+00  9.7630085085193075e-01 3.9572461468303115e-02 0.0000000000000000e+00  9.7899123347244943e-01 -3.1984691929589727e-02 0.0000000000000000e+00  -1.2191819821558414e-01 -4.8401458640664830e-01 0.0000000000000000e+00  5.5044239848918675e-01 -3.4381461782423145e-01 0.0000000000000000e+00  7.2222433203497902e-02 -1.6061765499965749e-01 0.0000000000000000e+00  -2.6439926892339621e-01 -3.8742770059943538e-01 0.0000000000000000e+00  3.3981543884824794e-01 -3.4475257015058144e-02 0.0000000000000000e+00  -3.0048850513191415e-02 4.7235420765848957e-01 0.0000000000000000e+00  6.1045319946153576e-01 1.9478081178026071e-02 0.0000000000000000e+00  -1.6898309097366301e-01 2.7666954140645239e-01 0.0000000000000000e+00  3.9922678378900611e-01 9.9059049518248881e-03 0.0000000000000000e+00  3.5297817619269306e-01 5.3667628987246906e-04 0.0000000000000000e+00  3.3756495917768620e-01 1.8165057400063855e-02 0.0000000000000000e+00  3.7195802976924397e-01 -9.2475537954904441e-04 0.0000000000000000e+00  3.0348076733635310e-01 4.2606649066784144e-02 0.0000000000000000e+00  7.3484367218535540e-01 3.6492415462222635e-02 0.0000000000000000e+00  3.9295547647312357e-01 -4.4464781938060798e-02 0.0000000000000000e+00  -7.4846610584440492e-03 -2.2643269231636398e-01 0.0000000000000000e+00  2.7040500289606734e-01 -4.6036747633885350e-01 0.0000000000000000e+00  3.2664134146531293e-01 3.5909227209367865e-02 0.0000000000000000e+00  9.8873420784813504e-01 1.2543286530473341e-02 0.0000000000000000e+00  3.7530886950790837e-01 4.6880386176128647e-01 0.0000000000000000e+00  5.6770917401134269e-01 3.3989447698994302e-01 0.0000000000000000e+00  1.0086865099925661e+00 2.0223848085108066e-02 0.0000000000000000e+00  7.2976012429670400e-01 6.8202978544059545e-02 0.0000000000000000e+00  3.5659459667691845e-01 1.1413416477361245e-04 0.0000000000000000e+00  9.9472388146291613e-01 -2.9385652187526482e-02 0.0000000000000000e+00  -7.9923107921938658e-02 -2.2695497834108638e-01 0.0000000000000000e+00  3.5040118654703784e-01 1.2444898022795270e-03 0.0000000000000000e+00  9.9127303665759992e-01 -1.0827199050950771e-02 0.0000000000000000e+00  5.5314435906714565e-01 8.3864047247243882e-03 0.0000000000000000e+00  3.6168020987094118e-01 1.7890599633267089e-04 0.0000000000000000e+00  5.1461660807004184e-01 6.3307045986697119e-02 0.0000000000000000e+00  3.3972930062639883e-01 4.5278932818020798e-03 0.0000000000000000e+00  7.7701000376274099e-01 -3.5642679229519539e-02 0.0000000000000000e+00  3.7079462139411001e-01 1.9857697065209321e-02 0.0000000000000000e+00  -1.1414615885046703e-01 2.2320186775864739e-01 0.0000000000000000e+00  2.9814949745784047e-01 7.7110644441781964e-02 0.0000000000000000e+00  7.8448055507890979e-01 -5.4782641321934281e-03 0.0000000000000000e+00  3.8125656409882476e-02 -5.3704743077831030e-01 0.0000000000000000e+00  3.4554884942978081e-01 -7.2098435257756874e-04 0.0000000000000000e+00  -4.4451035446169290e-01 2.3864799441652804e-01 0.0000000000000000e+00  2.4969600018399468e-01 -4.6955682132428629e-02 0.0000000000000000e+00  7.2656798280305868e-01 2.4201338259841884e-01 0.0000000000000000e+00  -2.1779158911282681e-01 4.8730294175223876e-01 0.0000000000000000e+00  -2.5913286396307006e-01 3.8068023813573060e-01 0.0000000000000000e+00  5.5797134034945539e-01 -6.5532164800721049e-02 0.0000000000000000e+00  3.7771364029254628e-01 3.2337079177635125e-03 0.0000000000000000e+00  7.5139086878159067e-01 -1.5056357175683702e-01 0.0000000000000000e+00  5.9991819773946564e-01 -9.5358965873120330e-02 0.0000000000000000e+00  4.2679259293281174e-01 4.7801526407379696e-02 0.0000000000000000e+00  3.6131693829537870e-01 1.0501695044370929e-01 0.0000000000000000e+00  8.1260501555189724e-01 1.1336317381156957e-01 0.0000000000000000e+00  2.9386723856931701e-01 -1.4152487792434904e-01 0.0000000000000000e+00  3.3413340112842776e-01 -5.8490733705923760e-03 0.0000000000000000e+00  3.4270013278386990e-01 -1.8875594405355389e-05 0.0000000000000000e+00  1.4139548094688564e-01 5.4637599341649390e-01 0.0000000000000000e+00  1.8285774530376528e-01 -1.0699045189999773e-01 0.0000000000000000e+00  -1.5643095461396960e-04 -2.1406765405748607e-01 0.0000000000000000e+00  8.4022084652593654e-01 -7.1579505918201405e-02 0.0000000000000000e+00  3.2559394936094238e-01 -6.1160693300345466e-03 0.0000000000000000e+00  1.7247110013762521e-01 1.0549436755316868e-01 0.0000000000000000e+00  9.9968049663681280e-01 -1.0360856575939346e-02 0.0000000000000000e+00  5.7449869572163692e-01 2.6631532953039050e-01 0.0000000000000000e+00  3.5725780169375970e-01 -8.4077856438493043e-04 0.0000000000000000e+00  2.9628852292644320e-01 -3.5350447502161750e-02 0.0000000000000000e+00  9.8621833476643839e-01 2.6272073610481127e-02 0.0000000000000000e+00  9.8692502925028935e-01 2.2278082288208920e-02 0.0000000000000000e+00  1.6081145178512393e-01 1.7594646785063731e-01 0.0000000000000000e+00  4.8971746063694893e-01 8.7299983082464325e-02 0.0000000000000000e+00  7.1918198609928219e-01 -2.2747028158985672e-01 0.0000000000000000e+00  3.6152507583341881e-01 -1.2829807352109797e-02 0.0000000000000000e+00  9.8552712500694473e-01 -2.5546385902439447e-02 0.0000000000000000e+00  4.4450664330469758e-01 -3.9597241846551570e-02 0.0000000000000000e+00  2.7019076331909292e-01 -5.9346404153785857e-02 0.0000000000000000e+00  4.2914085602695135e-01 -4.2468734227691853e-02 0.0000000000000000e+00  -1.9350219224562662e-01 -2.8418773492740140e-01 0.0000000000000000e+00  -2.6035837697052350e-01 -4.4332372336668191e-01 0.0000000000000000e+00  1.6461020008068264e-01 3.3597093551893678e-02 0.0000000000000000e+00  4.0613832893585006e-01 -8.8382735503663157e-02 0.0000000000000000e+00  3.6736915979222079e-01 9.1140044147575866e-04 0.0000000000000000e+00  -5.3940830762669789e-01 -2.8412845341563166e-02 0.0000000000000000e+00  3.6322874256766063e-01 -1.3113749377104330e-02 0.0000000000000000e+00  3.6790143451582397e-01 -3.1094414885142030e-02 0.0000000000000000e+00  9.9264313680814142e-01 -2.1475492140075251e-04 0.0000000000000000e+00  1.0606152360282986e-01 1.1102996714941749e-01 0.0000000000000000e+00  9.1823249215343228e-01 -4.3184680372923875e-02 0.0000000000000000e+00  3.9020973635075651e-01 5.0389104194869833e-02 0.0000000000000000e+00  9.3358359126355517e-01 2.8537848182043874e-02 0.0000000000000000e+00  1.0578067314255858e-01 -2.6094877838058327e-02 0.0000000000000000e+00  2.5193704950611479e-01 5.8912770027062675e-02 0.0000000000000000e+00  4.2197327836808174e-01 -4.7019903780956296e-01 0.0000000000000000e+00  6.8292410856556840e-01 -3.5036379086860775e-01 0.0000000000000000e+00  9.4706780792990930e-01 -4.6544333653854179e-02 0.0000000000000000e+00  3.6109881376370573e-01 1.8162575418458426e-01 0.0000000000000000e+00  3.3959171938135163e-01 -1.3269520444972225e-03 0.0000000000000000e+00  2.9324865558731827e-01 -1.9181222531783026e-01 0.0000000000000000e+00  -6.3401109473319772e-01 -3.6713246755536409e-02 0.0000000000000000e+00  3.7233604353142441e-01 -1.8126740270714231e-01 0.0000000000000000e+00  -2.6387681035651478e-01 -1.3707994709005805e-01 0.0000000000000000e+00  4.1206294191345472e-01 -1.2040064593769231e-02 0.0000000000000000e+00  9.8674543903324452e-01 4.4666712512185947e-03 0.0000000000000000e+00  9.1913719935774152e-01 6.9523188406455216e-02 0.0000000000000000e+00  6.2299712473324709e-01 3.4434450446548825e-01 0.0000000000000000e+00  8.0672784269510345e-01 1.7154313672098004e-01 0.0000000000000000e+00  9.9349240360993851e-01 -1.2804461274210354