<?xml version="1.0"?>
<VTKFile type="UnstructuredGrid"  version="0.1"  >
<UnstructuredGrid>
<Piece  NumberOfPoints="406" NumberOfCells="722">
<Points>
<DataArray  type="Float64"  NumberOfComponents="3"  format="ascii">-6 -2 0  -6 2 0  6 2 0  6 -2 0  -2.8 0 0  -1.2 0 0  -5.500000000001853 -2 0  -5.000000000003705 -2 0  -4.500000000005556 -2 0  -4.000000000007409 -2 0  -3.50000000000926 -2 0  -3.000000000011112 -2 0  -2.500000000012963 -2 0  -2.000000000014814 -2 0  -1.500000000016665 -2 0  -1.000000000018516 -2 0  -0.5000000000203677 -2 0  -2.204547655537681e-11 -2 0  0.4999999999796305 -2 0  0.9999999999814779 -2 0  1.499999999983327 -2 0  1.999999999985175 -2 0  2.499999999987029 -2 0  2.999999999988882 -2 0  3.499999999990735 -2 0  3.999999999992589 -2 0  4.49999999999444 -2 0  4.999999999996293 -2 0  5.499999999998147 -2 0  6 -1.500000000001387 0  6 -1.000000000002774 0  6 -0.5000000000041616 0  6 -5.505595979116151e-12 0  6 0.4999999999958384 0  6 0.9999999999972258 0  6 1.499999999998613 0  5.500000000001853 2 0  5.000000000003705 2 0  4.500000000005556 2 0  4.000000000007409 2 0  3.50000000000926 2 0  3.000000000011112 2 0  2.500000000012963 2 0  2.000000000014814 2 0  1.500000000016665 2 0  1.000000000018516 2 0  0.5000000000203677 2 0  2.204547655537681e-11 2 0  -0.4999999999796305 2 0  -0.9999999999814779 2 0  -1.499999999983327 2 0  -1.999999999985175 2 0  -2.499999999987029 2 0  -2.999999999988882 2 0  -3.499999999990735 2 0  -3.999999999992589 2 0  -4.49999999999444 2 0  -4.999999999996293 2 0  -5.499999999998147 2 0  -6 1.500000000001387 0  -6 1.000000000002774 0  -6 0.5000000000041616 0  -6 5.505595979116151e-12 0  -6 -0.4999999999958384 0  -6 -0.9999999999972258 0  -6 -1.499999999998613 0  -2.776753453941174 -0.1914525314286965 0  -2.708364820523325 -0.3717785376335722 0  -2.598808598538216 -0.5304981265911284 0  -2.454451797386757 -0.65838709271366 0  -2.283683909636528 -0.748012994147384 0  -2.096429344207466 -0.7941670992780535 0  -1.903570655798842 -0.7941670992788195 0  -1.716316090368095 -0.7480129941491368 0  -1.545548202616307 -0.6583870927157747 0  -1.401191401463757 -0.530498126593356 0  -1.291635179477527 -0.371778537635196 0  -1.223246546059047 -0.1914525314295925 0  -1.223246546058803 0.1914525314286035 0  -1.291635179476594 0.3717785376334188 0  -1.401191401461634 0.5304981265909601 0  -1.545548202612898 0.6583870927134221 0  -1.716316090363093 0.7480129941472402 0  -1.903570655792394 0.7941670992780367 0  -2.096429344201276 0.7941670992788055 0  -2.283683909631911 0.7480129941491347 0  -2.454451797383697 0.6583870927157729 0  -2.598808598536385 0.530498126593196 0  -2.70836482052258 0.3717785376349917 0  -2.776753453940975 0.1914525314295042 0  0.4588466633941945 0.2704149791022056 0  -4.424312812173863 0.2760319703992994 0  -3.803977598762586 -0.6841584599595646 0  -0.1330968762779425 -0.6798763971615133 0  2.451109587541276 3.169800318630399e-13 0  -3.563610936250569 0.5929994091167295 0  4.204753319582647 0.2820669554523581 0  -0.4390897559348154 0.6178095532273566 0  -3.041446812595122 1.175550440315544 0  -0.9622132806516797 1.132103015222783 0  1.069493318942931 -0.773608156980569 0  -4.924330687080279 -0.7127064269610045 0  -3.024693497948964 -1.195179289656404 0  -0.9648749555625579 -1.256854520022574 0  -3.443624282349383 -0.2044158249759613 0  -0.5611500783757608 -0.1747080110423833 0  1.60270880116926 0.7487034276124258 0  3.488352576142236 -0.8228939860777884 0  4.816375011670135 -0.8163750116689444 0  3.243628045085357 0.8578172796997985 0  -4.228632884234073 1.228069101636678 0  -2.365220384435482 -1.356128547810356 0  -1.637465979486354 1.3571687267915 0  -1.642380978561139 -1.359365080147485 0  -2.362988915989869 1.356737096243695 0  -5.134120367293631 0.8356299802910161 0  2.077496878467794 -0.9514080034522553 0  4.960859291178299 0.9608592911785537 0  0.3293120056474302 1.148965409695154 0  -5.157560560414062 0.09447106214747865 0  -3.14779387667392 -0.6330563038825547 0  -3.148134455585257 0.4354299640428653 0  -0.8464439673630421 0.4159277415926296 0  -0.9918125625721008 -0.7191748422889824 0  -4.355349213295776 -1.234510499778242 0  1.582074659164868 -0.06850205959954866 0  2.400584045214166 1.204278622181321 0  5.102831660739063 0.03453404176596848 0  4.083259768981113 1.154272958349666 0  -3.992394834362243 -0.1621022234411988 0  0.4290302718942113 -1.225465289645401 0  -3.681487986394671 -1.310544246656267 0  -3.640289698916164 1.187023654838123 0  0.468851680921228 -0.447055967952278 0  3.315209904217932 0.05667935655546536 0  -2.541160649745046 -1.046980928586996 0  -1.45196684542695 1.044189935346116 0  -2.000844595891861 -1.207983108473125 0  -1.453092202970521 -1.061139264918894 0  -2.000050543938391 1.207806685704176 0  -2.548033154566413 1.04418993534851 0  4.13054585796652 -1.232871249381608 0  -0.3301617095463629 1.221692405319566 0  -0.2880491989587189 -1.359626628407983 0  -0.0758941643813178 0.132275811829787 0  2.826389221580753 -1.233168480096227 0  -2.922070412327736 0.7575752117792038 0  1.003070890178416 1.271347915034201 0  -5.319521816151902 -1.310543894393663 0  -1.070407062963812 0.7877698545098388 0  -4.562499863038985 -0.2302396981426722 0  -3.164226661545047 0.07179577787350272 0  -0.9091377812900333 0.132454654016971 0  4.116029045943655 -0.4851826871817362 0  5.316659189209927 -1.316659189208741 0  -0.9498828454673396 -0.4149758979014553 0  -4.037769805263969 0.6896174350675625 0  1.431664772855882 -1.327784137638992 0  -3.646693623568034 0.1600006358878044 0  -2.878371345483476 -0.7910345833001061 0  1.062603041385242 0.2894765870627741 0  -0.547955103783681 0.1635272504420374 0  -4.804809838419659 1.41016301576038 0  -3.042895319571192 -0.3694931303482478 0  -4.59252578392403 0.792267765362792 0  2.823271260730033 -0.5472430318427347 0  -4.28575390662405 -0.7521491832384866 0  -0.5524005545121191 -0.9037367558558163 0  1.815219025072439 1.388812135783969 0  -1.288398729718543 -0.8178399475601057 0  -5.424388493366639 1.35375165044146 0  -2.256991952837567 -1.049538527273222 0  -1.739586738723494 -1.052327527873255 0  -1.738827359988536 1.050180627239116 0  -2.257795730428802 1.049701225145305 0  -0.62222340523776 -0.5483611729237363 0  2.065188519029698 0.5424877383589943 0  0.1055865106318892 0.7347782870471022 0  1.013082573993895 -0.2061877611231605 0  -5.428323520618333 -0.4386412085227075 0  5.374041502384443 -0.5304401760993408 0  3.435185060219232 -1.377658617395091 0  -3.302377238490527 0.8841390072780534 0  -0.9902123298072768 -0.124175295282554 0  0.7186958547669859 0.8724503317343631 0  2.941237214953417 1.390391532351976 0  4.708037787864423 -1.340276032051348 0  5.395029680982659 1.395029680983341 0  3.591022587550188 1.348260650408605 0  2.759385971589342 0.4857447325740718 0  -0.6832705231418494 0.8879387563573758 0  5.437781298507145 0.5981501503262471 0  -2.698603003287285 1.617130043745112 0  -3.463358189947519 -1.013588318179017 0  1.710866040171871 -0.6978716337870808 0  3.642182982762737 0.4555704362064124 0  -2.699802128031161 -1.618310703146212 0  -1.3020054856637 1.619819977935582 0  -2.000000000004996 -1.566396763829867 0  -1.999999999994794 1.566396763830688 0  -1.247812462071684 -1.595232739507426 0  4.59429106759859 1.420052135572917 0  0.9448382581152466 -1.440259145469251 0  -0.116376100998861 -0.2606209011258676 0  -4.774521510507792 0.4245390872783272 0  -2.983910172370106 -0.1208000607277856 0  -3.353983741142061 1.576062863985777 0  -5.473352579109997 0.4917619255280954 0  -4.828650470275986 -1.493148538517745 0  4.639973657165532 -0.2833178611094909 0  -2.660279445404468 0.7699932347178977 0  -1.335045190775955 0.7744876666923373 0  -3.395669172689978 0.2584951122361346 0  2.279110606119369 -1.465899541383697 0  4.734317729212562 0.4520963557364723 0  -0.6334913028224612 1.584213953723378 0  2.121854101359879 -0.4289611127787379 0  -3.474459720833238 -0.4977581316675216 0  -1.066539898844178 0.3411379476537602 0  -3.361849707555382 -1.611428512420182 0  -4.099039818938317 0.3306400369415774 0  -2.935324777364672 0.354721898811665 0  -3.973578595052027 1.482940358734671 0  3.784450148635689 -0.0702780807301525 0  -1.191348122671212 -0.5614501189722798 0  -2.838672605956353 -0.5493179047027598 0  -1.184983441257359 0.5617520886612424 0  -2.811184099847449 0.5574240755049175 0  0.2702752249355158 -0.8003643570420809 0  -0.6945947797857237 -1.593893965175195 0  0.001175881878679056 1.504521009023778 0  0.6072931735145096 1.501814722697789 0  -3.991896293645949 -1.047264188412552 0  -3.734097395159253 -0.3261671578666079 0  -5.539652387691843 -0.8857154182585802 0  -4.395061924111849 1.563293728588296 0  0.2258327611651416 -0.08745142624872881 0  -3.774816634825771 0.8676973328379478 0  2.208484493569073 1.6256686312487 0  0.1309939514660535 -1.566169703482512 0  -5.551414360955331 0.9459842275970113 0  -4.04734138658365 -1.51163984963472 0  -4.947145019546805 -0.3299925153029702 0  4.320410447198621 0.6970857582435144 0  -4.707557346727139 -1.000565649857444 0  1.353711468973986 1.582551234446199 0  1.674156483558973 0.3266252271732694 0  -4.039105552973997 -0.4537604746027087 0  0.01051727619263377 -1.088858357362194 0  -0.2234942609176301 0.8619127912343982 0  -2.95903482691863 0.1219373374385197 0  -4.682467695920681 0.0804575682243254 0  5.535750224195656 -0.1525732643419722 0  -4.290083947414376 -0.0005258314026840717 0  1.136102562417988 0.7655312464039168 0  -2.816589394567214 0.9927597419785312 0  -2.645374456162409 -0.7645902451387543 0  4.18414576655837 1.624276131878667 0  0.7127337088822223 -0.9006358935856398 0  1.972418102153911 0.9727040774616764 0  -2.42199174813501 0.8591219219254587 0  -2.418604734200992 -0.8552987735117754 0  -5.573597213364169 -0.03612430678117123 0  2.024792870869397 0.05574071630590883 0  -1.578875191508968 0.861424470724936 0  -1.54706008231699 -0.8630049102346303 0  3.848662181064435 -1.569601980075533 0  -2.000000000003871 -0.9746445732264465 0  -1.99999999
[...]
<PointData  Vectors="f_22"> 
<DataArray  type="Float64"  Name="f_22"  NumberOfComponents="3" format="ascii">0.0000000000000000e+00 0.0000000000000000e+00 0.0000000000000000e+00  0.0000000000000000e+00 0.0000000000000000e+00 0.0000000000000000e+00  0.0000000000000000e+00 0.0000000000000000e+00 0.0000000000000000e+00  0.0000000000000000e+00 0.0000000000000000e+00 0.0000000000000000e+00  9.9999995746786818e-01 0.0000000000000000e+00 0.0000000000000000e+00  9.9999995746786818e-01 0.0000000000000000e+00 0.0000000000000000e+00  0.0000000000000000e+00 0.0000000000000000e+00 0.0000000000000000e+00  0.0000000000000000e+00 0.0000000000000000e+00 0.0000000000000000e+00  0.0000000000000000e+00 0.0000000000000000e+00 0.0000000000000000e+00  0.0000000000000000e+00 0.0000000000000000e+00 0.0000000000000000e+00  0.0000000000000000e+00 0.0000000000000000e+00 0.0000000000000000e+00  0.0000000000000000e+00 0.0000000000000000e+00 0.0000000000000000e+00  0.0000000000000000e+00 0.0000000000000000e+00 0.0000000000000000e+00  0.0000000000000000e+00 0.0000000000000000e+00 0.0000000000000000e+00  0.0000000000000000e+00 0.0000000000000000e+00 0.0000000000000000e+00  0.0000000000000000e+00 0.0000000000000000e+00 0.0000000000000000e+00  0.0000000000000000e+00 0.0000000000000000e+00 0.0000000000000000e+00  0.0000000000000000e+00 0.0000000000000000e+00 0.0000000000000000e+00  0.0000000000000000e+00 0.0000000000000000e+00 0.0000000000000000e+00  0.0000000000000000e+00 0.0000000000000000e+00 0.0000000000000000e+00  0.0000000000000000e+00 0.0000000000000000e+00 0.0000000000000000e+00  0.0000000000000000e+00 0.0000000000000000e+00 0.0000000000000000e+00  0.0000000000000000e+00 0.0000000000000000e+00 0.0000000000000000e+00  0.0000000000000000e+00 0.0000000000000000e+00 0.0000000000000000e+00  0.0000000000000000e+00 0.0000000000000000e+00 0.0000000000000000e+00  0.0000000000000000e+00 0.0000000000000000e+00 0.0000000000000000e+00  0.0000000000000000e+00 0.0000000000000000e+00 0.0000000000000000e+00  0.0000000000000000e+00 0.0000000000000000e+00 0.0000000000000000e+00  0.0000000000000000e+00 0.0000000000000000e+00 0.0000000000000000e+00  3.4313005549300540e-01 -2.7709487952279176e-04 0.0000000000000000e+00  5.9957685740249800e-01 -5.0456261391579500e-04 0.0000000000000000e+00  7.5063890049085247e-01 -4.6025303366213659e-04 0.0000000000000000e+00  8.0094045438176031e-01 -2.2745091571513413e-05 0.0000000000000000e+00  7.5058788359673723e-01 4.1426515250780904e-04 0.0000000000000000e+00  5.9958379329395706e-01 5.0611779704866128e-04 0.0000000000000000e+00  3.4324408031228759e-01 2.4015760562181649e-04 0.0000000000000000e+00  0.0000000000000000e+00 0.0000000000000000e+00 0.0000000000000000e+00  0.0000000000000000e+00 0.0000000000000000e+00 0.0000000000000000e+00  0.0000000000000000e+00 0.0000000000000000e+00 0.0000000000000000e+00  0.0000000000000000e+00 0.0000000000000000e+00 0.0000000000000000e+00  0.0000000000000000e+00 0.0000000000000000e+00 0.0000000000000000e+00  0.0000000000000000e+00 0.0000000000000000e+00 0.0000000000000000e+00  0.0000000000000000e+00 0.0000000000000000e+00 0.0000000000000000e+00  0.0000000000000000e+00 0.0000000000000000e+00 0.0000000000000000e+00  0.0000000000000000e+00 0.0000000000000000e+00 0.0000000000000000e+00  0.0000000000000000e+00 0.0000000000000000e+00 0.0000000000000000e+00  0.0000000000000000e+00 0.0000000000000000e+00 0.0000000000000000e+00  0.0000000000000000e+00 0.0000000000000000e+00 0.0000000000000000e+00  0.0000000000000000e+00 0.0000000000000000e+00 0.0000000000000000e+00  0.0000000000000000e+00 0.0000000000000000e+00 0.0000000000000000e+00  0.0000000000000000e+00 0.0000000000000000e+00 0.0000000000000000e+00  0.0000000000000000e+00 0.0000000000000000e+00 0.0000000000000000e+00  0.0000000000000000e+00 0.0000000000000000e+00 0.0000000000000000e+00  0.0000000000000000e+00 0.0000000000000000e+00 0.0000000000000000e+00  0.0000000000000000e+00 0.0000000000000000e+00 0.0000000000000000e+00  0.0000000000000000e+00 0.0000000000000000e+00 0.0000000000000000e+00  0.0000000000000000e+00 0.0000000000000000e+00 0.0000000000000000e+00  0.0000000000000000e+00 0.0000000000000000e+00 0.0000000000000000e+00  0.0000000000000000e+00 0.0000000000000000e+00 0.0000000000000000e+00  3.4192903556575815e-01 -5.6877041768573942e-04 0.0000000000000000e+00  5.9902838240951684e-01 -9.5556842982587222e-04 0.0000000000000000e+00  7.5130941391410400e-01 -7.6721762367423145e-04 0.0000000000000000e+00  8.0261595457902046e-01 -3.9801615504335734e-06 0.0000000000000000e+00  7.5198827467215712e-01 8.9076549749726773e-04 0.0000000000000000e+00  5.9935593728736769e-01 1.0213006391441158e-03 0.0000000000000000e+00  3.4194567810471144e-01 6.1247036034580424e-04 0.0000000000000000e+00  9.9999995746786818e-01 0.0000000000000000e+00 0.0000000000000000e+00  9.9999995746786818e-01 0.0000000000000000e+00 0.0000000000000000e+00  9.9999995746786818e-01 0.0000000000000000e+00 0.0000000000000000e+00  9.9999995746786818e-01 0.0000000000000000e+00 0.0000000000000000e+00  9.9999995746786818e-01 0.0000000000000000e+00 0.0000000000000000e+00  9.9999995746786818e-01 0.0000000000000000e+00 0.0000000000000000e+00  9.9999995746786818e-01 0.0000000000000000e+00 0.0000000000000000e+00  9.9999995746786818e-01 0.0000000000000000e+00 0.0000000000000000e+00  9.9999995746786818e-01 0.0000000000000000e+00 0.0000000000000000e+00  9.9999995746786818e-01 0.0000000000000000e+00 0.0000000000000000e+00  9.9999995746786818e-01 0.0000000000000000e+00 0.0000000000000000e+00  9.9999995746786818e-01 0.0000000000000000e+00 0.0000000000000000e+00  9.9999995746786818e-01 0.0000000000000000e+00 0.0000000000000000e+00  9.9999995746786818e-01 0.0000000000000000e+00 0.0000000000000000e+00  9.9999995746786818e-01 0.0000000000000000e+00 0.0000000000000000e+00  9.9999995746786818e-01 0.0000000000000000e+00 0.0000000000000000e+00  9.9999995746786818e-01 0.0000000000000000e+00 0.0000000000000000e+00  9.9999995746786818e-01 0.0000000000000000e+00 0.0000000000000000e+00  9.9999995746786818e-01 0.0000000000000000e+00 0.0000000000000000e+00  9.9999995746786818e-01 0.0000000000000000e+00 0.0000000000000000e+00  9.9999995746786818e-01 0.0000000000000000e+00 0.0000000000000000e+00  9.9999995746786818e-01 0.0000000000000000e+00 0.0000000000000000e+00  9.9999995746786818e-01 0.0000000000000000e+00 0.0000000000000000e+00  9.9999995746786818e-01 0.0000000000000000e+00 0.0000000000000000e+00  8.6488050648425452e-01 1.6334964244817455e-02 0.0000000000000000e+00  7.9598544234233459e-01 -5.4061487437745718e-03 0.0000000000000000e+00  7.1674361798583908e-01 3.2092968919781840e-02 0.0000000000000000e+00  7.5886064618721261e-01 -4.8931480859895862e-02 0.0000000000000000e+00  8.1903021662040709e-01 1.7140270053762317e-05 0.0000000000000000e+00  7.5321061747593776e-01 -4.6890049885475744e-02 0.0000000000000000e+00  7.8784952561179933e-01 9.9204666288809306e-04 0.0000000000000000e+00  8.1130949696836774e-01 5.3980390278023364e-02 0.0000000000000000e+00  4.4817241903659660e-01 -9.2331409275942744e-02 0.0000000000000000e+00  4.3940457546826511e-01 9.2537442339709702e-02 0.0000000000000000e+00  6.8401130876741023e-01 -2.4441124947896801e-02 0.0000000000000000e+00  7.0031093443730530e-01 4.3104673659945456e-03 0.0000000000000000e+00  4.3397907202106195e-01 9.1806226620878284e-02 0.0000000000000000e+00  3.2727481557422433e-01 -8.0666344300277221e-02 0.0000000000000000e+00  8.5588285573172762e-01 2.5383487532266619e-02 0.0000000000000000e+00  9.5375452388963544e-01 -1.4309358416688588e-02 0.0000000000000000e+00  6.9113390949075759e-01 1.5561605112952336e-02 0.0000000000000000e+00  6.6411183556791309e-01 -3.2211353997972981e-03 0.0000000000000000e+00  6.6676517506030941e-01 -1.1094999474762772e-03 0.0000000000000000e+00  6.5160864592509182e-01 3.9343206498406794e-03 0.0000000000000000e+00  4.8658746245551221e-01 -1.2032155661173844e-02 0.0000000000000000e+00  1.9872632119754646e-01 9.7181920897759191e-02 0.0000000000000000e+00  1.5586134293496345e-01 2.6168554409079021e-02 0.0000000000000000e+00  1.5375295160045929e-01 -2.5079367729186876e-02 0.0000000000000000e+00  1.9782393690803962e-01 -9.6999036270328076e-02 0.0000000000000000e+00  6.6050489130078127e-01 -2.9395599994180310e-03 0.0000000000000000e+00  6.1187179638061273e-01 -1.0084178950961911e-02 0.0000000000000000e+00  6.1471204041978700e-01 9.3583088155471802e-04 0.0000000000000000e+00  4.8394554604388573e-01 3.8882584963280176e-02 0.0000000000000000e+00  8.0284704275319119e-01 -3.8488491427012873e-04 0.0000000000000000e+00  7.5717176124400976e-01 1.0120403272205815e-01 0.0000000000000000e+00  8.3930254405553617e-01 -8.2536589890848305e-02 0.0000000000000000e+00  9.3725987541836953e-01 3.7826034131168744e-02 0.0000000000000000e+00  8.0911651341654200e-01 -7.9415376702422311e-02 0.0000000000000000e+00  4.8544451266368627e-01 9.6191316856484733e-03 0.0000000000000000e+00  8.3698867421416467e-01 -2.0711888127646779e-03 0.0000000000000000e+00  4.9757189718381634e-01 5.8933000462883705e-03 0.0000000000000000e+00  8.0183507934040910e-01 4.7021854749175304e-05 0.0000000000000000e+00  5.3015910018478585e-01 1.5256750505891240e-03 0.0000000000000000e+00  8.2022621682378483e-01 7.4252467291417200e-03 0.0000000000000000e+00  4.4237647646571598e-01 -3.2934089346887463e-02 0.0000000000000000e+00  4.2510592391103752e-01 2.7065650318766447e-02 0.0000000000000000e+00  4.9133013403371972e-01 -3.4490927211289366e-02 0.0000000000000000e+00  8.2095710505493613e-01 -2.5806750800731311e-02 0.0000000000000000e+00  8.0865846287278853e-01 4.4440985561815878e-04 0.0000000000000000e+00  4.4752997939149997e-01 1.6842819321441949e-01 0.0000000000000000e+00  5.0006885224022091e-01 8.7724550653650701e-02 0.0000000000000000e+00  2.6028649065404985e-01 5.0321879688232853e-02 0.0000000000000000e+00  4.7952008905840854e-01 -8.6483504409092568e-02 0.0000000000000000e+00  2.6040539864184187e-01 -5.0080645681050827e-02 0.0000000000000000e+00  4.5126377412713453e-01 -1.6849651381025618e-01 0.0000000000000000e+00  4.9166600055791509e-01 -1.2975570777526127e-03 0.0000000000000000e+00  4.0699936814244669e-01 5.9356025195306597e-02 0.0000000000000000e+00  3.1490663971547017e-01 -4.7197224406636623e-02 0.0000000000000000e+00  9.1990053527705640e-01 9.4972331381198358e-03 0.0000000000000000e+00  4.8623533379731820e-01 -3.9353924881896860e-03 0.0000000000000000e+00  6.9541677104187882e-01 -1.4897127114120665e-01 0.0000000000000000e+00  4.3711997498419958e-01 1.8778799148790142e-02 0.0000000000000000e+00  4.5143930708422114e-01 1.5295303092548293e-03 0.0000000000000000e+00  7.6513406739532075e-01 8.8221488541445583e-02 0.0000000000000000e+00  7.9899842173285240e-01 3.5795142430954789e-03 0.0000000000000000e+00  9.1442707096332854e-01 -1.5025675853469967e-02 0.0000000000000000e+00  9.8601362399980486e-01 8.7639788432672429e-03 0.0000000000000000e+00  7.5560457620551558e-01 -1.6241364342705756e-03 0.0000000000000000e+00  4.4954328697825890e-01 -4.8716496292938575e-04 0.0000000000000000e+00  9.5064840003659334e-01 -3.5217165833748974e-02 0.0000000000000000e+00  7.1173558660424385e-01 -2.1061507512738470e-02 0.0000000000000000e+00  4.1722485601400061e-01 -1.1295357053444406e-02 0.0000000000000000e+00  8.4161198318846764e-01 -1.3578192806349918e-02 0.0000000000000000e+00  6.7327107977339140e-01 1.5709129867106353e-01 0.0000000000000000e+00  8.3203576820835956e-01 1.2656860821484877e-02 0.0000000000000000e+00  9.5395287402320161e-01 1.3269174855961262e-02 0.0000000000000000e+00  3.9272150134389977e-01 -3.1245435192132202e-03 0.0000000000000000e+00  8.7906335561034132e-01 8.6771522123423386e-02 0.0000000000000000e+00  6.7558745438320078e-01 -7.9720988353208077e-03 0.0000000000000000e+00  7.4621189059412507e-01 -5.0384095836865919e-03 0.0000000000000000e+00  6.8991491729622856e-01 1.3971006484474744e-02 0.0000000000000000e+00  6.3877089772518780e-01 -7.5812899239268802e-02 0.0000000000000000e+00  3.9034072852582002e-01 6.9138514694969209e-03 0.0000000000000000e+00  7.6543867934698395e-01 -8.8545768764801303e-02 0.0000000000000000e+00  4.2767758113535659e-01 -1.1793827332880428e-03 0.0000000000000000e+00  4.1752799505106653e-01 1.2702983642304255e-01 0.0000000000000000e+00  4.6379319649740797e-01 -3.7743241257709462e-02 0.0000000000000000e+00  4.6686477408078247e-01 3.8162021819084672e-02 0.0000000000000000e+00  4.1726766272635324e-01 -1.2724808253353531e-01 0.0000000000000000e+00  8.6168469092303968e-01 -5.2655521302520956e-02 0.0000000000000000e+00  7.5281030079234390e-01 9.2915036646815125e-03 0.0000000000000000e+00  7.1971343457142933e-01 4.5127997864068084e-02 0.0000000000000000e+00  8.4687838902705692e-01 -9.5944453688559753e-03 0.0000000000000000e+00  7.6414528790150960e-01 1.2242880599323872e-03 0.0000000000000000e+00  7.4464626700734149e-01 -6.4667856332961226e-04 0.0000000000000000e+00  4.1185446214622651e-01 -1.7253104200791940e-03 0.0000000000000000e+00  6.3421332679299558e-01 -7.8899069602144462e-02 0.0000000000000000e+00  9.9161911148713555e-01 -6.6518282379701785e-03 0.0000000000000000e+00  6.4065402227486068e-01 3.2466907823523544e-02 0.0000000000000000e+00  4.0157483690383561e-01 2.5353336953636537e-03 0.0000000000000000e+00  4.3628634910323572e-01 -6.3101563234788398e-04 0.0000000000000000e+00  4.0600596053020005e-01 4.2119266548264802e-04 0.0000000000000000e+00  4.2868675146361401e-01 1.5955007768903829e-03 0.0000000000000000e+00  7.6081739183516928e-01 5.0228319229740706e-03 0.0000000000000000e+00  6.5513433910064911e-01 8.2215249246348210e-02 0.0000000000000000e+00  7.2912664420352680e-01 6.4003249651515886e-04 0.0000000000000000e+00  1.3172667442594257e-01 -4.1458174860801805e-02 0.0000000000000000e+00  5.7376818512617189e-01 5.6314298840071712e-02 0.0000000000000000e+00  7.0878683877088589e-01 -1.4020042455113424e-02 0.0000000000000000e+00  7.6275520902465210e-01 2.3052141076266288e-03 0.0000000000000000e+00  1.3139363776226590e-01 4.1178541586716695e-02 0.0000000000000000e+00  3.3132884526978296e-02 2.7123559543226459e-02 0.0000000000000000e+00  3.2385913833883263e-02 2.7676269000157582e-02 0.0000000000000000e+00  3.2356645120841201e-02 -2.7641138930544127e-02 0.0000000000000000e+00  5.2077422843748875e-02 -3.1620765701566612e-02 0.0000000000000000e+00  3.9026616908504352e-01 5.5178987661948144e-04 0.0000000000000000e+00  3.3829967646108644e-01 -1.3628401892946064e-02 0.0000000000000000e+00  9.0472439200369004e-01 -1.9056878513131176e-02 0.0000000000000000e+00  7.6932172477601213e-01 -4.1057251154662877e-03 0.0000000000000000e+00  9.5158946909784448e-01 3.1646210878692384e-02 0.0000000000000000e+00  2.4378213514730193e-01 -2.2144450694263053e-02 0.0000000000000000e+00  7.5360795793295099e-01 -1.1236979996468040e-03 0.0000000000000000e+00  3.4388882108503754e-01 2.3891237000938973e-03 0.0000000000000000e+00  7.8657330789565039e-01 -7.0570895036081867e-04 0.0000000000000000e+00  6.9127931862562508e-01 -1.8056804389017164e-01 0.0000000000000000e+00  8.1792514314574383e-01 7.7965151615585954e-02 0.0000000000000000e+00  8.5278124804933841e-01 -3.4315411579788978e-02 0.0000000000000000e+00  3.5207030906164255e-01 -3.6063288524449274e-03 0.0000000000000000e+00  7.6092371987958818e-01 9.5351505091276591e-04 0.0000000000000000e+00  1.3871576061209417e-01 3.2535336510366941e-02 0.0000000000000000e+00  7.7909630359698590e-01 -7.6370491479347651e-03 0.0000000000000000e+00  7.8794968223019257e-01 5.0002067478110583e-02 0.0000000000000000e+00  9.7991217907347661e-01 2.0484292302853757e-02 0.0000000000000000e+00  2.2271479315606527e-01 1.8827055784154986e-02 0.0000000000000000e+00  7.9597016826827915e-01 -1.1534624732210105e-02 0.0000000000000000e+00  9.0686655588960730e-01 -9.2633870181150796e-02 0.0000000000000000e+00  3.3515312960541760e-01 -1.1268859705444658e-02 0.0000000000000000e+00  8.0531234503398474e-01 -3.7260024662261535e-04 0.0000000000000000e+00  9.3924975075234673e-01 -4.3820789256605701e-02 0.0000000000000000e+00  8.3149806802085280e-01 1.4220480118360129e-01 0.0000000000000000e+00  9.3789078220804389e-01 4.4706062417130231e-02 0.0000000000000000e+00  8.3247080677041907e-01 -1.4609709217956063e-01 0.0000000000000000e+00  6.8118528169267345e-01 -4.2902220318578432e-02 0.0000000000000000e+00  1.2493275602473010e-01 -3.2957281888229523e-02 0.0000000000000000e+00  2.4785735114191138e-01 2.6910255564611726e-02 0.0000000000000000e+00  2.8720486056774408e-01 1.5881489248254763e-02 0.0000000000000000e+00  5.7152823498664851e-01 2.1818700364575967e-02 0.0000000000000000e+00  8.1258702157077312e-01 2.2569626053822924e-02 0.0000000000000000e+00  6.4317219223843469e-01 1.4507442771334793e-03 0.0000000000000000e+00  2.9455902635327874e-01 -3.9953785635389221e-03 0.0000000000000000e+00  9.0272646242548193e-01 -5.7435192689577665e-03 0.0000000000000000e+00  6.4767022662074991e-01 -3.4888740759446375e-02 0.0000000000000000e+00  2.5087796728911493e-01 2.1680477139123635e-03 0.0000000000000000e+00  2.2125026212625784e-01 -1.9591129091193697e-02 0.0000000000000000e+00  6.2036236859712857e-01 -1.3840586538610043e-03 0.0000000000000000e+00  3.1958063135754666e-01 9.1498315502786410e-03 0.0000000000000000e+00  7.8333501936224570e-01 2.3991075718885436e-03 0.0000000000000000e+00  7.0365066194928394e-01 1.6311124006312813e-03 0.0000000000000000e+00  5.9770563474381666e-01 6.3938094419794351e-03 0.0000000000000000e+00  2.6485923642707515e-01 5.6996122947064179e-03 0.0000000000000000e+00  8.0664792536933738e-01 8.7396974215127130e-03 0.0000000000000000e+00  7.7514095164452956e-01 1.6762063957836301e-02 0.0000000000000000e+00  5.1168287646047350e-01 -5.1036906310087213e-02 0.0000000000000000e+00  6.5752765289566950e-01 6.0049191498328401e-02 0.0000000000000000e+00  9.5830383932876329e-01 -3.2414417085858946e-02 0.0000000000000000e+00  8.0721127918818258e-01 -8.7113803936126244e-04 0.0000000000000000e+00  7.9668979909756421e-01 -2.2088601586202380e-04 0.0000000000000000e+00  8.1612360716278198e-01 2.9932330110422346e-05 0.0000000000000000e+00  6.8685164689275668e-01 2.3176272441266136e-02 0.0000000000000000e+00  5.3238539710882515e-01 -1.5124816572863184e-01 0.0000000000000000e+00  6.9751993618134589e-01 1.7917124369685627e-01 0.0000000000000000e+00  2.6124657968577758e-01 4.3942210484404845e-04 0.0000000000000000e+00  6.2684105127487078e-01 -3.2731035215915298e-02 0.0000000000000000e+00  6.0219611119931049e-01 1.0858006337509551e-02 0.0000000000000000e+00  6.3357739322130424e-01 -1.5554459101818832e-01 0.0000000000000000e+00  6.3966676585234905e-01 1.5310879665389562e-01 0.0000000000000000e+00  8.0273864771255299e-01 6.0451346669518363e-05 0.0000000000000000e+00  8.2604627664659891e-01 1.2056679686050192e-03 0.0000000000000000e+00  7.5714231154304601e-01 6.6861536570744576e-02 0.0000000000000000e+00  7.4940322924681524e-01 -7.1650916952233260e-02 0.0000000000000000e+00  2.9633252943760890e-01 -6.4505930112687107e-04 0.0000000000000000e+00  5.5232416542515572e-01 3.1114967035544616e-02 0.0000000000000000e+00  5.5231233280549730e-01 -3.1143312968205727e-02 0.0000000000000000e+00  3.3391706865640675e-01 -1.0808015068113433e-01 0.0000000000000000e+00  6.2214741775415172e-01 2.7087798366263092e-03 0.0000000000000000e+00  5.6259924609507383e-01 1.0160755269041999e-01 0.0000000000000000e+00  8.7730123193271348e-01 -2.1964820175239771e-03 0.0000000000000000e+00  6.0471472616247379e-01 5.8591919580917124e-04 0.0000000000000000e+00  6.2614858563732312e-01 -6.1705106401916678e-04 0.0000000000000000e+00  6.0414857992533200e-01 5.2591333618090246e-03 0.0000000000000000e+00  2.6667244491712105e-01 7.4764437746825493e-02 0.0000000000000000e+00  5.3148382118570447e-01 -1.0110044444377525e-01 0.0000000000000000e+00  6.4842389639363529e-01 -7.1521413550520233e-03 0.0000000000000000e+00  6.5658999316958588e-01 -1.5535169315792591e-03 0.0000000000000000e+00  2.6225811500795654e-01 -3.0357860456144581e-04 0.0000000000000000e+00  2.5515901990106604e-01 -3.5515054937796573e-03 0.0000000000000000e+00  8.2846381881891284e-01 -3.1767638179505807e-02 0.