<?xml version="1.0"?>
<VTKFile type="UnstructuredGrid"  version="0.1"  >
<UnstructuredGrid>
<Piece  NumberOfPoints="406" NumberOfCells="722">
<Points>
<DataArray  type="Float64"  NumberOfComponents="3"  format="ascii">-6 -2 0  -6 2 0  6 2 0  6 -2 0  -2.8 0 0  -1.2 0 0  -5.500000000001853 -2 0  -5.000000000003705 -2 0  -4.500000000005556 -2 0  -4.000000000007409 -2 0  -3.50000000000926 -2 0  -3.000000000011112 -2 0  -2.500000000012963 -2 0  -2.000000000014814 -2 0  -1.500000000016665 -2 0  -1.000000000018516 -2 0  -0.5000000000203677 -2 0  -2.204547655537681e-11 -2 0  0.4999999999796305 -2 0  0.9999999999814779 -2 0  1.499999999983327 -2 0  1.999999999985175 -2 0  2.499999999987029 -2 0  2.999999999988882 -2 0  3.499999999990735 -2 0  3.999999999992589 -2 0  4.49999999999444 -2 0  4.999999999996293 -2 0  5.499999999998147 -2 0  6 -1.500000000001387 0  6 -1.000000000002774 0  6 -0.5000000000041616 0  6 -5.505595979116151e-12 0  6 0.4999999999958384 0  6 0.9999999999972258 0  6 1.499999999998613 0  5.500000000001853 2 0  5.000000000003705 2 0  4.500000000005556 2 0  4.000000000007409 2 0  3.50000000000926 2 0  3.000000000011112 2 0  2.500000000012963 2 0  2.000000000014814 2 0  1.500000000016665 2 0  1.000000000018516 2 0  0.5000000000203677 2 0  2.204547655537681e-11 2 0  -0.4999999999796305 2 0  -0.9999999999814779 2 0  -1.499999999983327 2 0  -1.999999999985175 2 0  -2.499999999987029 2 0  -2.999999999988882 2 0  -3.499999999990735 2 0  -3.999999999992589 2 0  -4.49999999999444 2 0  -4.999999999996293 2 0  -5.499999999998147 2 0  -6 1.500000000001387 0  -6 1.000000000002774 0  -6 0.5000000000041616 0  -6 5.505595979116151e-12 0  -6 -0.4999999999958384 0  -6 -0.9999999999972258 0  -6 -1.499999999998613 0  -2.776753453941174 -0.1914525314286965 0  -2.708364820523325 -0.3717785376335722 0  -2.598808598538216 -0.5304981265911284 0  -2.454451797386757 -0.65838709271366 0  -2.283683909636528 -0.748012994147384 0  -2.096429344207466 -0.7941670992780535 0  -1.903570655798842 -0.7941670992788195 0  -1.716316090368095 -0.7480129941491368 0  -1.545548202616307 -0.6583870927157747 0  -1.401191401463757 -0.530498126593356 0  -1.291635179477527 -0.371778537635196 0  -1.223246546059047 -0.1914525314295925 0  -1.223246546058803 0.1914525314286035 0  -1.291635179476594 0.3717785376334188 0  -1.401191401461634 0.5304981265909601 0  -1.545548202612898 0.6583870927134221 0  -1.716316090363093 0.7480129941472402 0  -1.903570655792394 0.7941670992780367 0  -2.096429344201276 0.7941670992788055 0  -2.283683909631911 0.7480129941491347 0  -2.454451797383697 0.6583870927157729 0  -2.598808598536385 0.530498126593196 0  -2.70836482052258 0.3717785376349917 0  -2.776753453940975 0.1914525314295042 0  0.4588466633941945 0.2704149791022056 0  -4.424312812173863 0.2760319703992994 0  -3.803977598762586 -0.6841584599595646 0  -0.1330968762779425 -0.6798763971615133 0  2.451109587541276 3.169800318630399e-13 0  -3.563610936250569 0.5929994091167295 0  4.204753319582647 0.2820669554523581 0  -0.4390897559348154 0.6178095532273566 0  -3.041446812595122 1.175550440315544 0  -0.9622132806516797 1.132103015222783 0  1.069493318942931 -0.773608156980569 0  -4.924330687080279 -0.7127064269610045 0  -3.024693497948964 -1.195179289656404 0  -0.9648749555625579 -1.256854520022574 0  -3.443624282349383 -0.2044158249759613 0  -0.5611500783757608 -0.1747080110423833 0  1.60270880116926 0.7487034276124258 0  3.488352576142236 -0.8228939860777884 0  4.816375011670135 -0.8163750116689444 0  3.243628045085357 0.8578172796997985 0  -4.228632884234073 1.228069101636678 0  -2.365220384435482 -1.356128547810356 0  -1.637465979486354 1.3571687267915 0  -1.642380978561139 -1.359365080147485 0  -2.362988915989869 1.356737096243695 0  -5.134120367293631 0.8356299802910161 0  2.077496878467794 -0.9514080034522553 0  4.960859291178299 0.9608592911785537 0  0.3293120056474302 1.148965409695154 0  -5.157560560414062 0.09447106214747865 0  -3.14779387667392 -0.6330563038825547 0  -3.148134455585257 0.4354299640428653 0  -0.8464439673630421 0.4159277415926296 0  -0.9918125625721008 -0.7191748422889824 0  -4.355349213295776 -1.234510499778242 0  1.582074659164868 -0.06850205959954866 0  2.400584045214166 1.204278622181321 0  5.102831660739063 0.03453404176596848 0  4.083259768981113 1.154272958349666 0  -3.992394834362243 -0.1621022234411988 0  0.4290302718942113 -1.225465289645401 0  -3.681487986394671 -1.310544246656267 0  -3.640289698916164 1.187023654838123 0  0.468851680921228 -0.447055967952278 0  3.315209904217932 0.05667935655546536 0  -2.541160649745046 -1.046980928586996 0  -1.45196684542695 1.044189935346116 0  -2.000844595891861 -1.207983108473125 0  -1.453092202970521 -1.061139264918894 0  -2.000050543938391 1.207806685704176 0  -2.548033154566413 1.04418993534851 0  4.13054585796652 -1.232871249381608 0  -0.3301617095463629 1.221692405319566 0  -0.2880491989587189 -1.359626628407983 0  -0.0758941643813178 0.132275811829787 0  2.826389221580753 -1.233168480096227 0  -2.922070412327736 0.7575752117792038 0  1.003070890178416 1.271347915034201 0  -5.319521816151902 -1.310543894393663 0  -1.070407062963812 0.7877698545098388 0  -4.562499863038985 -0.2302396981426722 0  -3.164226661545047 0.07179577787350272 0  -0.9091377812900333 0.132454654016971 0  4.116029045943655 -0.4851826871817362 0  5.316659189209927 -1.316659189208741 0  -0.9498828454673396 -0.4149758979014553 0  -4.037769805263969 0.6896174350675625 0  1.431664772855882 -1.327784137638992 0  -3.646693623568034 0.1600006358878044 0  -2.878371345483476 -0.7910345833001061 0  1.062603041385242 0.2894765870627741 0  -0.547955103783681 0.1635272504420374 0  -4.804809838419659 1.41016301576038 0  -3.042895319571192 -0.3694931303482478 0  -4.59252578392403 0.792267765362792 0  2.823271260730033 -0.5472430318427347 0  -4.28575390662405 -0.7521491832384866 0  -0.5524005545121191 -0.9037367558558163 0  1.815219025072439 1.388812135783969 0  -1.288398729718543 -0.8178399475601057 0  -5.424388493366639 1.35375165044146 0  -2.256991952837567 -1.049538527273222 0  -1.739586738723494 -1.052327527873255 0  -1.738827359988536 1.050180627239116 0  -2.257795730428802 1.049701225145305 0  -0.62222340523776 -0.5483611729237363 0  2.065188519029698 0.5424877383589943 0  0.1055865106318892 0.7347782870471022 0  1.013082573993895 -0.2061877611231605 0  -5.428323520618333 -0.4386412085227075 0  5.374041502384443 -0.5304401760993408 0  3.435185060219232 -1.377658617395091 0  -3.302377238490527 0.8841390072780534 0  -0.9902123298072768 -0.124175295282554 0  0.7186958547669859 0.8724503317343631 0  2.941237214953417 1.390391532351976 0  4.708037787864423 -1.340276032051348 0  5.395029680982659 1.395029680983341 0  3.591022587550188 1.348260650408605 0  2.759385971589342 0.4857447325740718 0  -0.6832705231418494 0.8879387563573758 0  5.437781298507145 0.5981501503262471 0  -2.698603003287285 1.617130043745112 0  -3.463358189947519 -1.013588318179017 0  1.710866040171871 -0.6978716337870808 0  3.642182982762737 0.4555704362064124 0  -2.699802128031161 -1.618310703146212 0  -1.3020054856637 1.619819977935582 0  -2.000000000004996 -1.566396763829867 0  -1.999999999994794 1.566396763830688 0  -1.247812462071684 -1.595232739507426 0  4.59429106759859 1.420052135572917 0  0.9448382581152466 -1.440259145469251 0  -0.116376100998861 -0.2606209011258676 0  -4.774521510507792 0.4245390872783272 0  -2.983910172370106 -0.1208000607277856 0  -3.353983741142061 1.576062863985777 0  -5.473352579109997 0.4917619255280954 0  -4.828650470275986 -1.493148538517745 0  4.639973657165532 -0.2833178611094909 0  -2.660279445404468 0.7699932347178977 0  -1.335045190775955 0.7744876666923373 0  -3.395669172689978 0.2584951122361346 0  2.279110606119369 -1.465899541383697 0  4.734317729212562 0.4520963557364723 0  -0.6334913028224612 1.584213953723378 0  2.121854101359879 -0.4289611127787379 0  -3.474459720833238 -0.4977581316675216 0  -1.066539898844178 0.3411379476537602 0  -3.361849707555382 -1.611428512420182 0  -4.099039818938317 0.3306400369415774 0  -2.935324777364672 0.354721898811665 0  -3.973578595052027 1.482940358734671 0  3.784450148635689 -0.0702780807301525 0  -1.191348122671212 -0.5614501189722798 0  -2.838672605956353 -0.5493179047027598 0  -1.184983441257359 0.5617520886612424 0  -2.811184099847449 0.5574240755049175 0  0.2702752249355158 -0.8003643570420809 0  -0.6945947797857237 -1.593893965175195 0  0.001175881878679056 1.504521009023778 0  0.6072931735145096 1.501814722697789 0  -3.991896293645949 -1.047264188412552 0  -3.734097395159253 -0.3261671578666079 0  -5.539652387691843 -0.8857154182585802 0  -4.395061924111849 1.563293728588296 0  0.2258327611651416 -0.08745142624872881 0  -3.774816634825771 0.8676973328379478 0  2.208484493569073 1.6256686312487 0  0.1309939514660535 -1.566169703482512 0  -5.551414360955331 0.9459842275970113 0  -4.04734138658365 -1.51163984963472 0  -4.947145019546805 -0.3299925153029702 0  4.320410447198621 0.6970857582435144 0  -4.707557346727139 -1.000565649857444 0  1.353711468973986 1.582551234446199 0  1.674156483558973 0.3266252271732694 0  -4.039105552973997 -0.4537604746027087 0  0.01051727619263377 -1.088858357362194 0  -0.2234942609176301 0.8619127912343982 0  -2.95903482691863 0.1219373374385197 0  -4.682467695920681 0.0804575682243254 0  5.535750224195656 -0.1525732643419722 0  -4.290083947414376 -0.0005258314026840717 0  1.136102562417988 0.7655312464039168 0  -2.816589394567214 0.9927597419785312 0  -2.645374456162409 -0.7645902451387543 0  4.18414576655837 1.624276131878667 0  0.7127337088822223 -0.9006358935856398 0  1.972418102153911 0.9727040774616764 0  -2.42199174813501 0.8591219219254587 0  -2.418604734200992 -0.8552987735117754 0  -5.573597213364169 -0.03612430678117123 0  2.024792870869397 0.05574071630590883 0  -1.578875191508968 0.861424470724936 0  -1.54706008231699 -0.8630049102346303 0  3.848662181064435 -1.569601980075533 0  -2.000000000003871 -0.9746445732264465 0  -1.99999999
[...]
<PointData  Vectors="f_22"> 
<DataArray  type="Float64"  Name="f_22"  NumberOfComponents="3" format="ascii">0.0000000000000000e+00 0.0000000000000000e+00 0.0000000000000000e+00  0.0000000000000000e+00 0.0000000000000000e+00 0.0000000000000000e+00  0.0000000000000000e+00 0.0000000000000000e+00 0.0000000000000000e+00  0.0000000000000000e+00 0.0000000000000000e+00 0.0000000000000000e+00  9.9999995855615897e-01 0.0000000000000000e+00 0.0000000000000000e+00  9.9999995855615897e-01 0.0000000000000000e+00 0.0000000000000000e+00  0.0000000000000000e+00 0.0000000000000000e+00 0.0000000000000000e+00  0.0000000000000000e+00 0.0000000000000000e+00 0.0000000000000000e+00  0.0000000000000000e+00 0.0000000000000000e+00 0.0000000000000000e+00  0.0000000000000000e+00 0.0000000000000000e+00 0.0000000000000000e+00  0.0000000000000000e+00 0.0000000000000000e+00 0.0000000000000000e+00  0.0000000000000000e+00 0.0000000000000000e+00 0.0000000000000000e+00  0.0000000000000000e+00 0.0000000000000000e+00 0.0000000000000000e+00  0.0000000000000000e+00 0.0000000000000000e+00 0.0000000000000000e+00  0.0000000000000000e+00 0.0000000000000000e+00 0.0000000000000000e+00  0.0000000000000000e+00 0.0000000000000000e+00 0.0000000000000000e+00  0.0000000000000000e+00 0.0000000000000000e+00 0.0000000000000000e+00  0.0000000000000000e+00 0.0000000000000000e+00 0.0000000000000000e+00  0.0000000000000000e+00 0.0000000000000000e+00 0.0000000000000000e+00  0.0000000000000000e+00 0.0000000000000000e+00 0.0000000000000000e+00  0.0000000000000000e+00 0.0000000000000000e+00 0.0000000000000000e+00  0.0000000000000000e+00 0.0000000000000000e+00 0.0000000000000000e+00  0.0000000000000000e+00 0.0000000000000000e+00 0.0000000000000000e+00  0.0000000000000000e+00 0.0000000000000000e+00 0.0000000000000000e+00  0.0000000000000000e+00 0.0000000000000000e+00 0.0000000000000000e+00  0.0000000000000000e+00 0.0000000000000000e+00 0.0000000000000000e+00  0.0000000000000000e+00 0.0000000000000000e+00 0.0000000000000000e+00  0.0000000000000000e+00 0.0000000000000000e+00 0.0000000000000000e+00  0.0000000000000000e+00 0.0000000000000000e+00 0.0000000000000000e+00  3.2770803152540390e-01 -1.3861707634173193e-04 0.0000000000000000e+00  5.6014162079622010e-01 -2.6810602200857346e-04 0.0000000000000000e+00  6.8806284679798768e-01 -2.7472441736131658e-04 0.0000000000000000e+00  7.2880028364094163e-01 -2.9523090727027953e-05 0.0000000000000000e+00  6.8799567464846956e-01 2.2538468226598562e-04 0.0000000000000000e+00  5.6015901674135826e-01 2.5999143724843353e-04 0.0000000000000000e+00  3.2780759176018626e-01 1.1265476635432507e-04 0.0000000000000000e+00  0.0000000000000000e+00 0.0000000000000000e+00 0.0000000000000000e+00  0.0000000000000000e+00 0.0000000000000000e+00 0.0000000000000000e+00  0.0000000000000000e+00 0.0000000000000000e+00 0.0000000000000000e+00  0.0000000000000000e+00 0.0000000000000000e+00 0.0000000000000000e+00  0.0000000000000000e+00 0.0000000000000000e+00 0.0000000000000000e+00  0.0000000000000000e+00 0.0000000000000000e+00 0.0000000000000000e+00  0.0000000000000000e+00 0.0000000000000000e+00 0.0000000000000000e+00  0.0000000000000000e+00 0.0000000000000000e+00 0.0000000000000000e+00  0.0000000000000000e+00 0.0000000000000000e+00 0.0000000000000000e+00  0.0000000000000000e+00 0.0000000000000000e+00 0.0000000000000000e+00  0.0000000000000000e+00 0.0000000000000000e+00 0.0000000000000000e+00  0.0000000000000000e+00 0.0000000000000000e+00 0.0000000000000000e+00  0.0000000000000000e+00 0.0000000000000000e+00 0.0000000000000000e+00  0.0000000000000000e+00 0.0000000000000000e+00 0.0000000000000000e+00  0.0000000000000000e+00 0.0000000000000000e+00 0.0000000000000000e+00  0.0000000000000000e+00 0.0000000000000000e+00 0.0000000000000000e+00  0.0000000000000000e+00 0.0000000000000000e+00 0.0000000000000000e+00  0.0000000000000000e+00 0.0000000000000000e+00 0.0000000000000000e+00  0.0000000000000000e+00 0.0000000000000000e+00 0.0000000000000000e+00  0.0000000000000000e+00 0.0000000000000000e+00 0.0000000000000000e+00  0.0000000000000000e+00 0.0000000000000000e+00 0.0000000000000000e+00  0.0000000000000000e+00 0.0000000000000000e+00 0.0000000000000000e+00  0.0000000000000000e+00 0.0000000000000000e+00 0.0000000000000000e+00  3.2547760559719541e-01 -7.7201060751698925e-04 0.0000000000000000e+00  5.5907467220078899e-01 -1.3063521574081434e-03 0.0000000000000000e+00  6.8966166430942233e-01 -1.0584611426241505e-03 0.0000000000000000e+00  7.3217629927378436e-01 -3.8540037010099656e-05 0.0000000000000000e+00  6.9034234560295982e-01 1.1707767423046486e-03 0.0000000000000000e+00  5.5931019905685642e-01 1.3671778516050003e-03 0.0000000000000000e+00  3.2542259016586994e-01 8.1409402471762250e-04 0.0000000000000000e+00  9.9999995855615897e-01 0.0000000000000000e+00 0.0000000000000000e+00  9.9999995855615897e-01 0.0000000000000000e+00 0.0000000000000000e+00  9.9999995855615897e-01 0.0000000000000000e+00 0.0000000000000000e+00  9.9999995855615897e-01 0.0000000000000000e+00 0.0000000000000000e+00  9.9999995855615897e-01 0.0000000000000000e+00 0.0000000000000000e+00  9.9999995855615897e-01 0.0000000000000000e+00 0.0000000000000000e+00  9.9999995855615897e-01 0.0000000000000000e+00 0.0000000000000000e+00  9.9999995855615897e-01 0.0000000000000000e+00 0.0000000000000000e+00  9.9999995855615897e-01 0.0000000000000000e+00 0.0000000000000000e+00  9.9999995855615897e-01 0.0000000000000000e+00 0.0000000000000000e+00  9.9999995855615897e-01 0.0000000000000000e+00 0.0000000000000000e+00  9.9999995855615897e-01 0.0000000000000000e+00 0.0000000000000000e+00  9.9999995855615897e-01 0.0000000000000000e+00 0.0000000000000000e+00  9.9999995855615897e-01 0.0000000000000000e+00 0.0000000000000000e+00  9.9999995855615897e-01 0.0000000000000000e+00 0.0000000000000000e+00  9.9999995855615897e-01 0.0000000000000000e+00 0.0000000000000000e+00  9.9999995855615897e-01 0.0000000000000000e+00 0.0000000000000000e+00  9.9999995855615897e-01 0.0000000000000000e+00 0.0000000000000000e+00  9.9999995855615897e-01 0.0000000000000000e+00 0.0000000000000000e+00  9.9999995855615897e-01 0.0000000000000000e+00 0.0000000000000000e+00  9.9999995855615897e-01 0.0000000000000000e+00 0.0000000000000000e+00  9.9999995855615897e-01 0.0000000000000000e+00 0.0000000000000000e+00  9.9999995855615897e-01 0.0000000000000000e+00 0.0000000000000000e+00  9.9999995855615897e-01 0.0000000000000000e+00 0.0000000000000000e+00  8.2778407728479408e-01 2.1399069717293082e-02 0.0000000000000000e+00  7.3105132249273652e-01 -7.0634310370688421e-03 0.0000000000000000e+00  6.6450400421871614e-01 4.1982658646373294e-02 0.0000000000000000e+00  7.1751114364185420e-01 -6.2738688480266758e-02 0.0000000000000000e+00  7.5791526090080164e-01 1.2672319206782820e-05 0.0000000000000000e+00  7.0111609000532749e-01 -6.1794311260762819e-02 0.0000000000000000e+00  7.1999663353034804e-01 1.7275901016794778e-03 0.0000000000000000e+00  7.7721178306169769e-01 6.8860238569034296e-02 0.0000000000000000e+00  3.9310913084659571e-01 -1.1820578095924965e-01 0.0000000000000000e+00  3.7139814030009027e-01 1.1138307330274821e-01 0.0000000000000000e+00  6.3465330249359075e-01 -3.2315048304682840e-02 0.0000000000000000e+00  6.4710887422691055e-01 5.5529288387427423e-03 0.0000000000000000e+00  3.7855584276054466e-01 1.1738248519356738e-01 0.0000000000000000e+00  2.5373996610108995e-01 -9.7068270551308525e-02 0.0000000000000000e+00  8.0654179571837625e-01 3.3901307265992602e-02 0.0000000000000000e+00  9.4165071222014707e-01 -1.8850782424717032e-02 0.0000000000000000e+00  6.4077287613015266e-01 2.1770937087634751e-02 0.0000000000000000e+00  6.1526196495525676e-01 -5.6485425845351055e-03 0.0000000000000000e+00  6.1793403348618980e-01 -1.6375411685086532e-03 0.0000000000000000e+00  6.0410531514064569e-01 6.7398279329068536e-03 0.0000000000000000e+00  4.5504772256814752e-01 -1.5408534830923056e-02 0.0000000000000000e+00  1.1318057729331399e-01 1.1889838256802192e-01 0.0000000000000000e+00  6.4229911267002282e-02 3.1618706810020325e-02 0.0000000000000000e+00  6.1984063550269128e-02 -3.0316488858827654e-02 0.0000000000000000e+00  1.1224348075192392e-01 -1.1862441296983627e-01 0.0000000000000000e+00  6.1267191333789450e-01 -3.8175863953518246e-03 0.0000000000000000e+00  5.6603597015388429e-01 -1.4955609625328711e-02 0.0000000000000000e+00  5.7316189330983336e-01 1.2717814826705052e-03 0.0000000000000000e+00  4.3200327427456292e-01 4.8850574846153280e-02 0.0000000000000000e+00  7.3340040840216059e-01 -5.4382731844089798e-04 0.0000000000000000e+00  7.0910252950862040e-01 1.3345105230339738e-01 0.0000000000000000e+00  7.9785166477694280e-01 -1.1045264276904261e-01 0.0000000000000000e+00  9.2445874050288568e-01 4.7381581525571800e-02 0.0000000000000000e+00  7.7823409568576662e-01 -9.6167456513444785e-02 0.0000000000000000e+00  4.5476343652786050e-01 1.2288504407708300e-02 0.0000000000000000e+00  7.8476699258601956e-01 -2.9073763870963477e-03 0.0000000000000000e+00  4.6214209918688387e-01 9.1423125999199120e-03 0.0000000000000000e+00  7.2973392555556282e-01 6.4267500727730221e-05 0.0000000000000000e+00  4.9768584715359815e-01 2.6873568120981449e-03 0.0000000000000000e+00  7.5775261462839694e-01 9.7022989476461159e-03 0.0000000000000000e+00  3.9241895184375852e-01 -4.1492949692455275e-02 0.0000000000000000e+00  3.9171902853404744e-01 3.4629439652039275e-02 0.0000000000000000e+00  4.5264872640658177e-01 -4.4511065870257230e-02 0.0000000000000000e+00  7.8033730945737434e-01 -3.3557098396885129e-02 0.0000000000000000e+00  7.4169401772017740e-01 7.5402809632360557e-04 0.0000000000000000e+00  3.7033750408683253e-01 2.0700196489759451e-01 0.0000000000000000e+00  4.3513815577516601e-01 1.0313668613544186e-01 0.0000000000000000e+00  1.6905770299032707e-01 5.9075594403519872e-02 0.0000000000000000e+00  4.1240857544551035e-01 -1.0178751337522708e-01 0.0000000000000000e+00  1.6921009165135514e-01 -5.8781378982713781e-02 0.0000000000000000e+00  3.7442141952878355e-01 -2.0734835714031294e-01 0.0000000000000000e+00  4.6313901622862297e-01 -2.2810232486676360e-03 0.0000000000000000e+00  3.4649402846136523e-01 7.2958219999221516e-02 0.0000000000000000e+00  2.5629055989689548e-01 -5.7900632291671333e-02 0.0000000000000000e+00  8.9603729885791350e-01 1.2764386577914255e-02 0.0000000000000000e+00  4.5397057979685351e-01 -6.4431810527380189e-03 0.0000000000000000e+00  6.4198297854368058e-01 -1.9246537761046051e-01 0.0000000000000000e+00  3.9438231863014556e-01 2.4640158582714133e-02 0.0000000000000000e+00  4.2615064857160234e-01 1.9435980926152438e-03 0.0000000000000000e+00  7.2908501666031489e-01 1.0590009027446758e-01 0.0000000000000000e+00  7.3264462668742480e-01 4.6246186501313850e-03 0.0000000000000000e+00  8.8178707938034673e-01 -2.0553723384571999e-02 0.0000000000000000e+00  9.8276097410697849e-01 1.1046770157239870e-02 0.0000000000000000e+00  6.9330537745588916e-01 -2.8522287393041006e-03 0.0000000000000000e+00  4.2602791668907414e-01 -4.8675576646435852e-04 0.0000000000000000e+00  9.4082028530128925e-01 -4.3549606529360289e-02 0.0000000000000000e+00  6.5892267991462461e-01 -2.7474995271078717e-02 0.0000000000000000e+00  3.8042820299488395e-01 -1.5531391367276721e-02 0.0000000000000000e+00  7.8589609862021603e-01 -1.8051720440894807e-02 0.0000000000000000e+00  6.1748498662012374e-01 2.0177066974200561e-01 0.0000000000000000e+00  7.8577408205455124e-01 1.6800413037685161e-02 0.0000000000000000e+00  9.4174720301595582e-01 1.7531248175912433e-02 0.0000000000000000e+00  3.7130643818535175e-01 -3.9581816216063739e-03 0.0000000000000000e+00  8.4515950502250370e-01 1.1666455510013737e-01 0.0000000000000000e+00  6.2589761479841244e-01 -1.0327378741400245e-02 0.0000000000000000e+00  6.8889380346734663e-01 -8.1671548039259148e-03 0.0000000000000000e+00  6.3874345989255954e-01 1.8088788181035372e-02 0.0000000000000000e+00  5.8774397950498214e-01 -9.4010403391954378e-02 0.0000000000000000e+00  3.5922119904381444e-01 9.9562135148428647e-03 0.0000000000000000e+00  7.3098953219905349e-01 -1.0431023149553650e-01 0.0000000000000000e+00  4.0452856591397507e-01 -1.5134454390262520e-03 0.0000000000000000e+00  3.3796296731307512e-01 1.5088043202498294e-01 0.0000000000000000e+00  3.9507046758353898e-01 -4.4211958904902739e-02 0.0000000000000000e+00  3.9853977930314682e-01 4.4675797995788670e-02 0.0000000000000000e+00  3.3769463342724731e-01 -1.5115870329195413e-01 0.0000000000000000e+00  8.3538232135981350e-01 -6.6706521031264968e-02 0.0000000000000000e+00  6.9836590486514516e-01 1.3729190516287742e-02 0.0000000000000000e+00  6.7432489006472773e-01 5.7667426425915172e-02 0.0000000000000000e+00  8.0182598095453694e-01 -1.2711145647652498e-02 0.0000000000000000e+00  7.0072996294684387e-01 1.5903373955177445e-03 0.0000000000000000e+00  6.8312926614061920e-01 -6.9031229422153559e-04 0.0000000000000000e+00  3.8841463017230859e-01 -3.0272285713843321e-03 0.0000000000000000e+00  5.8379438641769632e-01 -1.0300661585999880e-01 0.0000000000000000e+00  9.8976121403778616e-01 -8.2809208852594358e-03 0.0000000000000000e+00  5.9113682676781587e-01 4.1800179047264227e-02 0.0000000000000000e+00  3.7693187366396691e-01 4.2421644869615072e-03 0.0000000000000000e+00  4.1359470538006549e-01 -9.5739298417087961e-04 0.0000000000000000e+00  3.8604973445267932e-01 3.8402358264200820e-04 0.0000000000000000e+00  4.0442231175748788e-01 2.8548609555424155e-03 0.0000000000000000e+00  7.0232547771824094e-01 8.0388664815010825e-03 0.0000000000000000e+00  6.0550751973561279e-01 1.0122360607609827e-01 0.0000000000000000e+00  6.7031578223386512e-01 6.3492847793282048e-04 0.0000000000000000e+00  8.3201014460733927e-02 -5.1820141968318779e-02 0.0000000000000000e+00  5.2724836618747539e-01 7.3075053808070917e-02 0.0000000000000000e+00  6.5763173837630051e-01 -1.9848736852983453e-02 0.0000000000000000e+00  7.0055480835591788e-01 4.0492775666130625e-03 0.0000000000000000e+00  8.3010510185207567e-02 5.1479347982585480e-02 0.0000000000000000e+00  -3.8067231883068459e-02 3.2296846216576539e-02 0.0000000000000000e+00  -4.9539712996152618e-02 3.3515545369137353e-02 0.0000000000000000e+00  -4.9563544473800521e-02 -3.3479273911777248e-02 0.0000000000000000e+00  -2.0064814596301928e-02 -3.7805355777178307e-02 0.0000000000000000e+00  3.7112661696516519e-01 8.8049898673016205e-04 0.0000000000000000e+00  3.0151408654092859e-01 -1.7808478303299319e-02 0.0000000000000000e+00  8.7936761495901439e-01 -2.5441169206408116e-02 0.0000000000000000e+00  7.0640637506500237e-01 -5.3456261096820083e-03 0.0000000000000000e+00  9.3318424802308153e-01 4.3541931136199093e-02 0.0000000000000000e+00  2.1606721811256249e-01 -2.8040292556110111e-02 0.0000000000000000e+00  6.9189410755899683e-01 -1.5174827696322782e-03 0.0000000000000000e+00  3.2596746951352251e-01 3.0348807556965312e-03 0.0000000000000000e+00  7.1795000824558886e-01 -1.1276184029023434e-03 0.0000000000000000e+00  6.3592086845771056e-01 -2.2528519419578488e-01 0.0000000000000000e+00  7.9085961873328581e-01 9.1435847020280736e-02 0.0000000000000000e+00  8.0499522622480368e-01 -4.5975726133956347e-02 0.0000000000000000e+00  3.2741476497690453e-01 -5.5537471972290616e-03 0.0000000000000000e+00  6.9678316011088115e-01 1.4736699314992789e-03 0.0000000000000000e+00  8.2290701196969435e-02 3.9419796238240747e-02 0.0000000000000000e+00  7.2303776904488903e-01 -1.1349432502427459e-02 0.0000000000000000e+00  7.3668846376854957e-01 6.6178367158140711e-02 0.0000000000000000e+00  9.7585868547999266e-01 2.5052090022734848e-02 0.0000000000000000e+00  1.9729259674330499e-01 2.3785600756362192e-02 0.0000000000000000e+00  7.3423507264450383e-01 -1.5130619059841217e-02 0.0000000000000000e+00  8.8016367326503797e-01 -1.2486755271391657e-01 0.0000000000000000e+00  3.1287156734894478e-01 -1.4244771579631969e-02 0.0000000000000000e+00  7.3618458897131800e-01 -6.6186045505080054e-04 0.0000000000000000e+00  9.2873740807838012e-01 -5.2300624315117741e-02 0.0000000000000000e+00  7.9328432028032503e-01 1.8546178346959394e-01 0.0000000000000000e+00  9.2711880223551990e-01 5.3381505200662302e-02 0.0000000000000000e+00  7.9457329752549799e-01 -1.8957990410678116e-01 0.0000000000000000e+00  6.3311119526621951e-01 -5.4636236886565721e-02 0.0000000000000000e+00  6.7544424029952935e-02 -3.9771385342492978e-02 0.0000000000000000e+00  2.0062062371825146e-01 3.3183400587234083e-02 0.0000000000000000e+00  2.4936675848840600e-01 2.0166341185870306e-02 0.0000000000000000e+00  5.3107765954214048e-01 2.8177343535436803e-02 0.0000000000000000e+00  7.5562951298501402e-01 2.9742289300378207e-02 0.0000000000000000e+00  5.9759438449781144e-01 1.9017253274200734e-03 0.0000000000000000e+00  2.7840582609802295e-01 -5.0658660012655350e-03 0.0000000000000000e+00  8.7243561264238756e-01 -7.6453992168311726e-03 0.0000000000000000e+00  6.0020633817545810e-01 -4.5442839050294427e-02 0.0000000000000000e+00  2.3355005455421760e-01 3.2641032032559207e-03 0.0000000000000000e+00  1.7985962155494473e-01 -2.4245674640220885e-02 0.0000000000000000e+00  5.7776545911431609e-01 -1.8364412796136849e-03 0.0000000000000000e+00  2.9918340514779684e-01 1.1517937473724800e-02 0.0000000000000000e+00  7.1767657866519474e-01 3.0961903373698998e-03 0.0000000000000000e+00  6.4925735617339597e-01 2.7805633648328941e-03 0.0000000000000000e+00  5.5723359067125200e-01 8.1948806091926441e-03 0.0000000000000000e+00  2.3944756516998186e-01 7.8090201583176913e-03 0.0000000000000000e+00  7.5350971366277553e-01 1.2326657374384658e-02 0.0000000000000000e+00  7.1623398375308156e-01 2.1889088179046060e-02 0.0000000000000000e+00  4.5687283105818549e-01 -6.3699116041761400e-02 0.0000000000000000e+00  6.0819646645677938e-01 7.5611845685283174e-02 0.0000000000000000e+00  9.4238596082225878e-01 -4.4810454810476623e-02 0.0000000000000000e+00  7.3886645212911706e-01 -1.1817074198637498e-03 0.0000000000000000e+00  7.2538639569187080e-01 -2.1417529441417353e-04 0.0000000000000000e+00  7.4980565137409128e-01 9.2389399487843849e-06 0.0000000000000000e+00  6.3735953082522101e-01 3.0809103345034276e-02 0.0000000000000000e+00  4.6754460227087746e-01 -1.9190130574120559e-01 0.0000000000000000e+00  6.4307879298774018e-01 2.2313332315158219e-01 0.0000000000000000e+00  2.5013801372251782e-01 7.3125811886828808e-04 0.0000000000000000e+00  5.7717072848616435e-01 -4.2085116447150531e-02 0.0000000000000000e+00  5.5669258412963774e-01 1.5914105801207116e-02 0.0000000000000000e+00  5.7655696228337128e-01 -1.8585284342373357e-01 0.0000000000000000e+00  5.8360944416776439e-01 1.8280942303506306e-01 0.0000000000000000e+00  7.3248400355255450e-01 5.7739622639618369e-05 0.0000000000000000e+00  7.6891523513776561e-01 1.7695806616800677e-03 0.0000000000000000e+00  7.2421121012597056e-01 7.7216943566256815e-02 0.0000000000000000e+00  7.1517540415786607e-01 -8.2920915573921394e-02 0.0000000000000000e+00  2.8242498301762847e-01 -1.1572001728475372e-03 0.0000000000000000e+00  4.9385989918857987e-01 3.5757694461564279e-02 0.0000000000000000e+00  4.9386139816616997e-01 -3.5790853733449847e-02 0.0000000000000000e+00  2.6638966903626937e-01 -1.3603857454400281e-01 0.0000000000000000e+00  5.7852762837827854e-01 4.7976765719776448e-03 0.0000000000000000e+00  5.0391312484963935e-01 1.2068053681535197e-01 0.0000000000000000e+00  8.3842834163609503e-01 -2.8798226837122654e-03 0.0000000000000000e+00  5.6462786386658592e-01 4.5045177217704544e-04 0.0000000000000000e+00  5.8324294371535135e-01 -5.0486984361986279e-04 0.0000000000000000e+00  5.6097728047369988e-01 8.5875988911932061e-03 0.0000000000000000e+00  1.8507403098426201e-01 8.9180871783215016e-02 0.0000000000000000e+00  4.6973279458579614e-01 -1.2055270971314544e-01 0.0000000000000000e+00  6.0056247123764095e-01 -1.1218023014565476e-02 0.0000000000000000e+00  6.0908920282077772e-01 -2.6390656013648354e-03 0.0000000000000000e+00  2.5120102111536891e-01 -5.7890262613154392e-04 0.0000000000000000e+00  2.3434913817048472e-01 -5.0591275536556049e-03 0.0000000000000000e+00  7.9164300203511562e-01 -4.1435243139917373e-0