<?xml version="1.0"?>
<VTKFile type="UnstructuredGrid"  version="0.1"  >
<UnstructuredGrid>
<Piece  NumberOfPoints="406" NumberOfCells="722">
<Points>
<DataArray  type="Float64"  NumberOfComponents="3"  format="ascii">-6 -2 0  -6 2 0  6 2 0  6 -2 0  -2.8 0 0  -1.2 0 0  -5.500000000001853 -2 0  -5.000000000003705 -2 0  -4.500000000005556 -2 0  -4.000000000007409 -2 0  -3.50000000000926 -2 0  -3.000000000011112 -2 0  -2.500000000012963 -2 0  -2.000000000014814 -2 0  -1.500000000016665 -2 0  -1.000000000018516 -2 0  -0.5000000000203677 -2 0  -2.204547655537681e-11 -2 0  0.4999999999796305 -2 0  0.9999999999814779 -2 0  1.499999999983327 -2 0  1.999999999985175 -2 0  2.499999999987029 -2 0  2.999999999988882 -2 0  3.499999999990735 -2 0  3.999999999992589 -2 0  4.49999999999444 -2 0  4.999999999996293 -2 0  5.499999999998147 -2 0  6 -1.500000000001387 0  6 -1.000000000002774 0  6 -0.5000000000041616 0  6 -5.505595979116151e-12 0  6 0.4999999999958384 0  6 0.9999999999972258 0  6 1.499999999998613 0  5.500000000001853 2 0  5.000000000003705 2 0  4.500000000005556 2 0  4.000000000007409 2 0  3.50000000000926 2 0  3.000000000011112 2 0  2.500000000012963 2 0  2.000000000014814 2 0  1.500000000016665 2 0  1.000000000018516 2 0  0.5000000000203677 2 0  2.204547655537681e-11 2 0  -0.4999999999796305 2 0  -0.9999999999814779 2 0  -1.499999999983327 2 0  -1.999999999985175 2 0  -2.499999999987029 2 0  -2.999999999988882 2 0  -3.499999999990735 2 0  -3.999999999992589 2 0  -4.49999999999444 2 0  -4.999999999996293 2 0  -5.499999999998147 2 0  -6 1.500000000001387 0  -6 1.000000000002774 0  -6 0.5000000000041616 0  -6 5.505595979116151e-12 0  -6 -0.4999999999958384 0  -6 -0.9999999999972258 0  -6 -1.499999999998613 0  -2.776753453941174 -0.1914525314286965 0  -2.708364820523325 -0.3717785376335722 0  -2.598808598538216 -0.5304981265911284 0  -2.454451797386757 -0.65838709271366 0  -2.283683909636528 -0.748012994147384 0  -2.096429344207466 -0.7941670992780535 0  -1.903570655798842 -0.7941670992788195 0  -1.716316090368095 -0.7480129941491368 0  -1.545548202616307 -0.6583870927157747 0  -1.401191401463757 -0.530498126593356 0  -1.291635179477527 -0.371778537635196 0  -1.223246546059047 -0.1914525314295925 0  -1.223246546058803 0.1914525314286035 0  -1.291635179476594 0.3717785376334188 0  -1.401191401461634 0.5304981265909601 0  -1.545548202612898 0.6583870927134221 0  -1.716316090363093 0.7480129941472402 0  -1.903570655792394 0.7941670992780367 0  -2.096429344201276 0.7941670992788055 0  -2.283683909631911 0.7480129941491347 0  -2.454451797383697 0.6583870927157729 0  -2.598808598536385 0.530498126593196 0  -2.70836482052258 0.3717785376349917 0  -2.776753453940975 0.1914525314295042 0  0.4588466633941945 0.2704149791022056 0  -4.424312812173863 0.2760319703992994 0  -3.803977598762586 -0.6841584599595646 0  -0.1330968762779425 -0.6798763971615133 0  2.451109587541276 3.169800318630399e-13 0  -3.563610936250569 0.5929994091167295 0  4.204753319582647 0.2820669554523581 0  -0.4390897559348154 0.6178095532273566 0  -3.041446812595122 1.175550440315544 0  -0.9622132806516797 1.132103015222783 0  1.069493318942931 -0.773608156980569 0  -4.924330687080279 -0.7127064269610045 0  -3.024693497948964 -1.195179289656404 0  -0.9648749555625579 -1.256854520022574 0  -3.443624282349383 -0.2044158249759613 0  -0.5611500783757608 -0.1747080110423833 0  1.60270880116926 0.7487034276124258 0  3.488352576142236 -0.8228939860777884 0  4.816375011670135 -0.8163750116689444 0  3.243628045085357 0.8578172796997985 0  -4.228632884234073 1.228069101636678 0  -2.365220384435482 -1.356128547810356 0  -1.637465979486354 1.3571687267915 0  -1.642380978561139 -1.359365080147485 0  -2.362988915989869 1.356737096243695 0  -5.134120367293631 0.8356299802910161 0  2.077496878467794 -0.9514080034522553 0  4.960859291178299 0.9608592911785537 0  0.3293120056474302 1.148965409695154 0  -5.157560560414062 0.09447106214747865 0  -3.14779387667392 -0.6330563038825547 0  -3.148134455585257 0.4354299640428653 0  -0.8464439673630421 0.4159277415926296 0  -0.9918125625721008 -0.7191748422889824 0  -4.355349213295776 -1.234510499778242 0  1.582074659164868 -0.06850205959954866 0  2.400584045214166 1.204278622181321 0  5.102831660739063 0.03453404176596848 0  4.083259768981113 1.154272958349666 0  -3.992394834362243 -0.1621022234411988 0  0.4290302718942113 -1.225465289645401 0  -3.681487986394671 -1.310544246656267 0  -3.640289698916164 1.187023654838123 0  0.468851680921228 -0.447055967952278 0  3.315209904217932 0.05667935655546536 0  -2.541160649745046 -1.046980928586996 0  -1.45196684542695 1.044189935346116 0  -2.000844595891861 -1.207983108473125 0  -1.453092202970521 -1.061139264918894 0  -2.000050543938391 1.207806685704176 0  -2.548033154566413 1.04418993534851 0  4.13054585796652 -1.232871249381608 0  -0.3301617095463629 1.221692405319566 0  -0.2880491989587189 -1.359626628407983 0  -0.0758941643813178 0.132275811829787 0  2.826389221580753 -1.233168480096227 0  -2.922070412327736 0.7575752117792038 0  1.003070890178416 1.271347915034201 0  -5.319521816151902 -1.310543894393663 0  -1.070407062963812 0.7877698545098388 0  -4.562499863038985 -0.2302396981426722 0  -3.164226661545047 0.07179577787350272 0  -0.9091377812900333 0.132454654016971 0  4.116029045943655 -0.4851826871817362 0  5.316659189209927 -1.316659189208741 0  -0.9498828454673396 -0.4149758979014553 0  -4.037769805263969 0.6896174350675625 0  1.431664772855882 -1.327784137638992 0  -3.646693623568034 0.1600006358878044 0  -2.878371345483476 -0.7910345833001061 0  1.062603041385242 0.2894765870627741 0  -0.547955103783681 0.1635272504420374 0  -4.804809838419659 1.41016301576038 0  -3.042895319571192 -0.3694931303482478 0  -4.59252578392403 0.792267765362792 0  2.823271260730033 -0.5472430318427347 0  -4.28575390662405 -0.7521491832384866 0  -0.5524005545121191 -0.9037367558558163 0  1.815219025072439 1.388812135783969 0  -1.288398729718543 -0.8178399475601057 0  -5.424388493366639 1.35375165044146 0  -2.256991952837567 -1.049538527273222 0  -1.739586738723494 -1.052327527873255 0  -1.738827359988536 1.050180627239116 0  -2.257795730428802 1.049701225145305 0  -0.62222340523776 -0.5483611729237363 0  2.065188519029698 0.5424877383589943 0  0.1055865106318892 0.7347782870471022 0  1.013082573993895 -0.2061877611231605 0  -5.428323520618333 -0.4386412085227075 0  5.374041502384443 -0.5304401760993408 0  3.435185060219232 -1.377658617395091 0  -3.302377238490527 0.8841390072780534 0  -0.9902123298072768 -0.124175295282554 0  0.7186958547669859 0.8724503317343631 0  2.941237214953417 1.390391532351976 0  4.708037787864423 -1.340276032051348 0  5.395029680982659 1.395029680983341 0  3.591022587550188 1.348260650408605 0  2.759385971589342 0.4857447325740718 0  -0.6832705231418494 0.8879387563573758 0  5.437781298507145 0.5981501503262471 0  -2.698603003287285 1.617130043745112 0  -3.463358189947519 -1.013588318179017 0  1.710866040171871 -0.6978716337870808 0  3.642182982762737 0.4555704362064124 0  -2.699802128031161 -1.618310703146212 0  -1.3020054856637 1.619819977935582 0  -2.000000000004996 -1.566396763829867 0  -1.999999999994794 1.566396763830688 0  -1.247812462071684 -1.595232739507426 0  4.59429106759859 1.420052135572917 0  0.9448382581152466 -1.440259145469251 0  -0.116376100998861 -0.2606209011258676 0  -4.774521510507792 0.4245390872783272 0  -2.983910172370106 -0.1208000607277856 0  -3.353983741142061 1.576062863985777 0  -5.473352579109997 0.4917619255280954 0  -4.828650470275986 -1.493148538517745 0  4.639973657165532 -0.2833178611094909 0  -2.660279445404468 0.7699932347178977 0  -1.335045190775955 0.7744876666923373 0  -3.395669172689978 0.2584951122361346 0  2.279110606119369 -1.465899541383697 0  4.734317729212562 0.4520963557364723 0  -0.6334913028224612 1.584213953723378 0  2.121854101359879 -0.4289611127787379 0  -3.474459720833238 -0.4977581316675216 0  -1.066539898844178 0.3411379476537602 0  -3.361849707555382 -1.611428512420182 0  -4.099039818938317 0.3306400369415774 0  -2.935324777364672 0.354721898811665 0  -3.973578595052027 1.482940358734671 0  3.784450148635689 -0.0702780807301525 0  -1.191348122671212 -0.5614501189722798 0  -2.838672605956353 -0.5493179047027598 0  -1.184983441257359 0.5617520886612424 0  -2.811184099847449 0.5574240755049175 0  0.2702752249355158 -0.8003643570420809 0  -0.6945947797857237 -1.593893965175195 0  0.001175881878679056 1.504521009023778 0  0.6072931735145096 1.501814722697789 0  -3.991896293645949 -1.047264188412552 0  -3.734097395159253 -0.3261671578666079 0  -5.539652387691843 -0.8857154182585802 0  -4.395061924111849 1.563293728588296 0  0.2258327611651416 -0.08745142624872881 0  -3.774816634825771 0.8676973328379478 0  2.208484493569073 1.6256686312487 0  0.1309939514660535 -1.566169703482512 0  -5.551414360955331 0.9459842275970113 0  -4.04734138658365 -1.51163984963472 0  -4.947145019546805 -0.3299925153029702 0  4.320410447198621 0.6970857582435144 0  -4.707557346727139 -1.000565649857444 0  1.353711468973986 1.582551234446199 0  1.674156483558973 0.3266252271732694 0  -4.039105552973997 -0.4537604746027087 0  0.01051727619263377 -1.088858357362194 0  -0.2234942609176301 0.8619127912343982 0  -2.95903482691863 0.1219373374385197 0  -4.682467695920681 0.0804575682243254 0  5.535750224195656 -0.1525732643419722 0  -4.290083947414376 -0.0005258314026840717 0  1.136102562417988 0.7655312464039168 0  -2.816589394567214 0.9927597419785312 0  -2.645374456162409 -0.7645902451387543 0  4.18414576655837 1.624276131878667 0  0.7127337088822223 -0.9006358935856398 0  1.972418102153911 0.9727040774616764 0  -2.42199174813501 0.8591219219254587 0  -2.418604734200992 -0.8552987735117754 0  -5.573597213364169 -0.03612430678117123 0  2.024792870869397 0.05574071630590883 0  -1.578875191508968 0.861424470724936 0  -1.54706008231699 -0.8630049102346303 0  3.848662181064435 -1.569601980075533 0  -2.000000000003871 -0.9746445732264465 0  -1.99999999
[...]
<PointData  Vectors="f_22"> 
<DataArray  type="Float64"  Name="f_22"  NumberOfComponents="3" format="ascii">0.0000000000000000e+00 0.0000000000000000e+00 0.0000000000000000e+00  0.0000000000000000e+00 0.0000000000000000e+00 0.0000000000000000e+00  0.0000000000000000e+00 0.0000000000000000e+00 0.0000000000000000e+00  0.0000000000000000e+00 0.0000000000000000e+00 0.0000000000000000e+00  9.9999995698691679e-01 0.0000000000000000e+00 0.0000000000000000e+00  9.9999995698691679e-01 0.0000000000000000e+00 0.0000000000000000e+00  0.0000000000000000e+00 0.0000000000000000e+00 0.0000000000000000e+00  0.0000000000000000e+00 0.0000000000000000e+00 0.0000000000000000e+00  0.0000000000000000e+00 0.0000000000000000e+00 0.0000000000000000e+00  0.0000000000000000e+00 0.0000000000000000e+00 0.0000000000000000e+00  0.0000000000000000e+00 0.0000000000000000e+00 0.0000000000000000e+00  0.0000000000000000e+00 0.0000000000000000e+00 0.0000000000000000e+00  0.0000000000000000e+00 0.0000000000000000e+00 0.0000000000000000e+00  0.0000000000000000e+00 0.0000000000000000e+00 0.0000000000000000e+00  0.0000000000000000e+00 0.0000000000000000e+00 0.0000000000000000e+00  0.0000000000000000e+00 0.0000000000000000e+00 0.0000000000000000e+00  0.0000000000000000e+00 0.0000000000000000e+00 0.0000000000000000e+00  0.0000000000000000e+00 0.0000000000000000e+00 0.0000000000000000e+00  0.0000000000000000e+00 0.0000000000000000e+00 0.0000000000000000e+00  0.0000000000000000e+00 0.0000000000000000e+00 0.0000000000000000e+00  0.0000000000000000e+00 0.0000000000000000e+00 0.0000000000000000e+00  0.0000000000000000e+00 0.0000000000000000e+00 0.0000000000000000e+00  0.0000000000000000e+00 0.0000000000000000e+00 0.0000000000000000e+00  0.0000000000000000e+00 0.0000000000000000e+00 0.0000000000000000e+00  0.0000000000000000e+00 0.0000000000000000e+00 0.0000000000000000e+00  0.0000000000000000e+00 0.0000000000000000e+00 0.0000000000000000e+00  0.0000000000000000e+00 0.0000000000000000e+00 0.0000000000000000e+00  0.0000000000000000e+00 0.0000000000000000e+00 0.0000000000000000e+00  0.0000000000000000e+00 0.0000000000000000e+00 0.0000000000000000e+00  3.6692697268376151e-01 -2.6762873701597658e-04 0.0000000000000000e+00  6.1914076173391364e-01 -5.8943429666883577e-04 0.0000000000000000e+00  7.6709084066611355e-01 -5.4603483783430338e-04 0.0000000000000000e+00  8.1631699312174832e-01 -2.4228864461703713e-05 0.0000000000000000e+00  7.6703623953663946e-01 5.0751810278756317e-04 0.0000000000000000e+00  6.1920947298496354e-01 6.0070710294081995e-04 0.0000000000000000e+00  3.6706781445918657e-01 2.5589472270750311e-04 0.0000000000000000e+00  0.0000000000000000e+00 0.0000000000000000e+00 0.0000000000000000e+00  0.0000000000000000e+00 0.0000000000000000e+00 0.0000000000000000e+00  0.0000000000000000e+00 0.0000000000000000e+00 0.0000000000000000e+00  0.0000000000000000e+00 0.0000000000000000e+00 0.0000000000000000e+00  0.0000000000000000e+00 0.0000000000000000e+00 0.0000000000000000e+00  0.0000000000000000e+00 0.0000000000000000e+00 0.0000000000000000e+00  0.0000000000000000e+00 0.0000000000000000e+00 0.0000000000000000e+00  0.0000000000000000e+00 0.0000000000000000e+00 0.0000000000000000e+00  0.0000000000000000e+00 0.0000000000000000e+00 0.0000000000000000e+00  0.0000000000000000e+00 0.0000000000000000e+00 0.0000000000000000e+00  0.0000000000000000e+00 0.0000000000000000e+00 0.0000000000000000e+00  0.0000000000000000e+00 0.0000000000000000e+00 0.0000000000000000e+00  0.0000000000000000e+00 0.0000000000000000e+00 0.0000000000000000e+00  0.0000000000000000e+00 0.0000000000000000e+00 0.0000000000000000e+00  0.0000000000000000e+00 0.0000000000000000e+00 0.0000000000000000e+00  0.0000000000000000e+00 0.0000000000000000e+00 0.0000000000000000e+00  0.0000000000000000e+00 0.0000000000000000e+00 0.0000000000000000e+00  0.0000000000000000e+00 0.0000000000000000e+00 0.0000000000000000e+00  0.0000000000000000e+00 0.0000000000000000e+00 0.0000000000000000e+00  0.0000000000000000e+00 0.0000000000000000e+00 0.0000000000000000e+00  0.0000000000000000e+00 0.0000000000000000e+00 0.0000000000000000e+00  0.0000000000000000e+00 0.0000000000000000e+00 0.0000000000000000e+00  0.0000000000000000e+00 0.0000000000000000e+00 0.0000000000000000e+00  3.6591351013127860e-01 -5.6926405931151001e-04 0.0000000000000000e+00  6.1866556935371642e-01 -9.7208901110696255e-04 0.0000000000000000e+00  7.6761090460710069e-01 -7.7928026172296712e-04 0.0000000000000000e+00  8.1772595186815744e-01 -6.5961960502858638e-06 0.0000000000000000e+00  7.6826152893011457e-01 9.0070978662850785e-04 0.0000000000000000e+00  6.1896928842375953e-01 1.0371668179950358e-03 0.0000000000000000e+00  3.6596843575509330e-01 5.9908590939514162e-04 0.0000000000000000e+00  9.9999995698691679e-01 0.0000000000000000e+00 0.0000000000000000e+00  9.9999995698691679e-01 0.0000000000000000e+00 0.0000000000000000e+00  9.9999995698691679e-01 0.0000000000000000e+00 0.0000000000000000e+00  9.9999995698691679e-01 0.0000000000000000e+00 0.0000000000000000e+00  9.9999995698691679e-01 0.0000000000000000e+00 0.0000000000000000e+00  9.9999995698691679e-01 0.0000000000000000e+00 0.0000000000000000e+00  9.9999995698691679e-01 0.0000000000000000e+00 0.0000000000000000e+00  9.9999995698691679e-01 0.0000000000000000e+00 0.0000000000000000e+00  9.9999995698691679e-01 0.0000000000000000e+00 0.0000000000000000e+00  9.9999995698691679e-01 0.0000000000000000e+00 0.0000000000000000e+00  9.9999995698691679e-01 0.0000000000000000e+00 0.0000000000000000e+00  9.9999995698691679e-01 0.0000000000000000e+00 0.0000000000000000e+00  9.9999995698691679e-01 0.0000000000000000e+00 0.0000000000000000e+00  9.9999995698691679e-01 0.0000000000000000e+00 0.0000000000000000e+00  9.9999995698691679e-01 0.0000000000000000e+00 0.0000000000000000e+00  9.9999995698691679e-01 0.0000000000000000e+00 0.0000000000000000e+00  9.9999995698691679e-01 0.0000000000000000e+00 0.0000000000000000e+00  9.9999995698691679e-01 0.0000000000000000e+00 0.0000000000000000e+00  9.9999995698691679e-01 0.0000000000000000e+00 0.0000000000000000e+00  9.9999995698691679e-01 0.0000000000000000e+00 0.0000000000000000e+00  9.9999995698691679e-01 0.0000000000000000e+00 0.0000000000000000e+00  9.9999995698691679e-01 0.0000000000000000e+00 0.0000000000000000e+00  9.9999995698691679e-01 0.0000000000000000e+00 0.0000000000000000e+00  9.9999995698691679e-01 0.0000000000000000e+00 0.0000000000000000e+00  8.8421700381771184e-01 1.7325273380253085e-02 0.0000000000000000e+00  8.1082894612085354e-01 -5.0257522497614733e-03 0.0000000000000000e+00  7.3308312599286074e-01 2.9947340681954801e-02 0.0000000000000000e+00  7.7748987898232580e-01 -4.7797770017123438e-02 0.0000000000000000e+00  8.3601015923313260e-01 1.7786078946914516e-05 0.0000000000000000e+00  7.6823574550488594e-01 -4.3810460915895660e-02 0.0000000000000000e+00  8.0398497302286409e-01 1.0950211730416097e-03 0.0000000000000000e+00  8.3110714900214999e-01 4.7149662132344332e-02 0.0000000000000000e+00  4.7357190842315788e-01 -8.6862678685171557e-02 0.0000000000000000e+00  4.6531399058639089e-01 8.2281583946187467e-02 0.0000000000000000e+00  7.0205042699142717e-01 -2.4919480865277208e-02 0.0000000000000000e+00  7.1762807223015923e-01 3.9613592693137000e-03 0.0000000000000000e+00  4.5989364356825224e-01 8.6417101492849660e-02 0.0000000000000000e+00  3.5255206058492317e-01 -7.2839388139772338e-02 0.0000000000000000e+00  8.6706468093606515e-01 2.3651383527702505e-02 0.0000000000000000e+00  9.6840263859423670e-01 -1.0166107692716198e-02 0.0000000000000000e+00  7.0908315120746124e-01 1.5980098950119669e-02 0.0000000000000000e+00  6.8226076740048980e-01 -3.4950141619024331e-03 0.0000000000000000e+00  6.8489656449992564e-01 -1.2732815178941885e-03 0.0000000000000000e+00  6.6994397282378226e-01 4.2390048450474333e-03 0.0000000000000000e+00  5.0905966568153183e-01 -1.0995696280518098e-02 0.0000000000000000e+00  2.3474407153218207e-01 9.3573610796213333e-02 0.0000000000000000e+00  1.9230044237554444e-01 2.0633226860993507e-02 0.0000000000000000e+00  1.9024759026160765e-01 -1.9625229174841542e-02 0.0000000000000000e+00  2.3386902314056979e-01 -9.3408905183186106e-02 0.0000000000000000e+00  6.7875004213404133e-01 -2.6945198894801799e-03 0.0000000000000000e+00  6.3048035603694863e-01 -1.0600284136935317e-02 0.0000000000000000e+00  6.3376435112535567e-01 1.0734401737633327e-03 0.0000000000000000e+00  5.0212339455031374e-01 3.9929460952692376e-02 0.0000000000000000e+00  8.1790222248151701e-01 -3.5571850423537338e-04 0.0000000000000000e+00  7.7178026015945644e-01 9.4380650883785458e-02 0.0000000000000000e+00  8.5039826135930952e-01 -7.6618531037002918e-02 0.0000000000000000e+00  9.5029884738490888e-01 2.6924406079117197e-02 0.0000000000000000e+00  8.3078532854019460e-01 -6.4147955783870045e-02 0.0000000000000000e+00  5.0785796344357570e-01 8.7729104437047414e-03 0.0000000000000000e+00  8.5478497232624961e-01 -2.1120028388737434e-03 0.0000000000000000e+00  5.1815854717005827e-01 6.2502039962369048e-03 0.0000000000000000e+00  8.1741144868236215e-01 5.2499046431036289e-05 0.0000000000000000e+00  5.5084115285706314e-01 1.6899440615661401e-03 0.0000000000000000e+00  8.3389426417148849e-01 6.9320576672432226e-03 0.0000000000000000e+00  4.6151311315621418e-01 -3.3694855068613506e-02 0.0000000000000000e+00  4.4961166084321513e-01 2.4951281278077022e-02 0.0000000000000000e+00  5.1404417874106945e-01 -3.1986766709094845e-02 0.0000000000000000e+00  8.3965087554290052e-01 -2.7232527094684652e-02 0.0000000000000000e+00  8.2497029590183424e-01 4.7470843529710604e-04 0.0000000000000000e+00  4.7741979115062583e-01 1.5897312921408183e-01 0.0000000000000000e+00  5.3392609934360036e-01 7.5909538893532261e-02 0.0000000000000000e+00  2.9934196139374342e-01 5.0477715982668356e-02 0.0000000000000000e+00  5.1369741393962465e-01 -7.4833499964130135e-02 0.0000000000000000e+00  2.9945820715810345e-01 -5.0255295171474007e-02 0.0000000000000000e+00  4.8092658758874868e-01 -1.5901292489896934e-01 0.0000000000000000e+00  5.1325140940223035e-01 -1.4309831398956288e-03 0.0000000000000000e+00  4.2530071159432281e-01 5.8014642939601117e-02 0.0000000000000000e+00  3.3427408225059169e-01 -4.6503839448896335e-02 0.0000000000000000e+00  9.4046955734905380e-01 8.9994670443975487e-03 0.0000000000000000e+00  5.0733005018314747e-01 -4.1855788189525348e-03 0.0000000000000000e+00  7.1313662952621359e-01 -1.3902467808530675e-01 0.0000000000000000e+00  4.5752811219670503e-01 1.9045965742145624e-02 0.0000000000000000e+00  4.7428241122581122e-01 1.3735333946502208e-03 0.0000000000000000e+00  7.8899537392993968e-01 7.2665795119263646e-02 0.0000000000000000e+00  8.1386741066350865e-01 3.3219023882009595e-03 0.0000000000000000e+00  9.2175253842772076e-01 -1.3877175464974143e-02 0.0000000000000000e+00  9.9105697796002834e-01 5.3844875410584223e-03 0.0000000000000000e+00  7.7227557224208210e-01 -1.8022197544170380e-03 0.0000000000000000e+00  4.7213167338990791e-01 -5.3476137700083043e-04 0.0000000000000000e+00  9.6129564914513854e-01 -2.4826233074852783e-02 0.0000000000000000e+00  7.2840590980111686e-01 -1.9602545880152419e-02 0.0000000000000000e+00  4.3838944347842135e-01 -1.1548206971052209e-02 0.0000000000000000e+00  8.5386561621629009e-01 -1.2685168527975904e-02 0.0000000000000000e+00  6.9212914266234360e-01 1.4672031951208905e-01 0.0000000000000000e+00  8.5015248767301366e-01 1.2990501046496124e-02 0.0000000000000000e+00  9.6876896502381338e-01 9.4505822111100677e-03 0.0000000000000000e+00  4.1660260614915751e-01 -2.7917784537082125e-03 0.0000000000000000e+00  8.8798732556802129e-01 8.0147579029849453e-02 0.0000000000000000e+00  6.9339618854155027e-01 -7.3435816281521241e-03 0.0000000000000000e+00  7.6341518306583933e-01 -5.3902973426841585e-03 0.0000000000000000e+00  7.0727668878494121e-01 1.2940265035067927e-02 0.0000000000000000e+00  6.5912332211669555e-01 -6.8777570166859217e-02 0.0000000000000000e+00  4.1219701770082240e-01 7.1696843825037639e-03 0.0000000000000000e+00  7.8936670834024658e-01 -7.4545939168111100e-02 0.0000000000000000e+00  4.5092455652212349e-01 -1.0795550625926995e-03 0.0000000000000000e+00  4.5170057170903938e-01 1.2053570064919031e-01 0.0000000000000000e+00  4.9946989918793089e-01 -3.1579066259827204e-02 0.0000000000000000e+00  5.0243339162407052e-01 3.1981648019571762e-02 0.0000000000000000e+00  4.5143513116180162e-01 -1.2074327663914081e-01 0.0000000000000000e+00  8.8090236979285386e-01 -4.2093937968576502e-02 0.0000000000000000e+00  7.7033744944697169e-01 9.7555947566655057e-03 0.0000000000000000e+00  7.3751288385206148e-01 4.6278957947569692e-02 0.0000000000000000e+00  8.6508648516087161e-01 -9.8800959030905921e-03 0.0000000000000000e+00  7.8012792033673106e-01 1.1537181316633692e-03 0.0000000000000000e+00  7.6127804334502336e-01 -7.5417193498413969e-04 0.0000000000000000e+00  4.3447353410537215e-01 -1.8286681214330701e-03 0.0000000000000000e+00  6.5293141516877595e-01 -7.3908112414838814e-02 0.0000000000000000e+00  9.9463322878877758e-01 -4.0296457628928193e-03 0.0000000000000000e+00  6.5863062811377793e-01 3.3449898114856769e-02 0.0000000000000000e+00  4.2414402774655385e-01 2.7072912686834849e-03 0.0000000000000000e+00  4.5893167119219125e-01 -7.4539651397806221e-04 0.0000000000000000e+00  4.2924026775794827e-01 4.2654429163018620e-04 0.0000000000000000e+00  4.5118803929053186e-01 1.7340174884810571e-03 0.0000000000000000e+00  7.7792322886640808e-01 5.3669484480037867e-03 0.0000000000000000e+00  6.7715396318422449e-01 7.2320388951513367e-02 0.0000000000000000e+00  7.4605918861754339e-01 7.4192115930952910e-04 0.0000000000000000e+00  1.6374839640423658e-01 -3.9369847538035380e-02 0.0000000000000000e+00  5.9427881096924939e-01 5.2616500381485846e-02 0.0000000000000000e+00  7.2663228256027135e-01 -1.4459990741979480e-02 0.0000000000000000e+00  7.7946534523929867e-01 2.5010672493619968e-03 0.0000000000000000e+00  1.6336767194026078e-01 3.9111057965045021e-02 0.0000000000000000e+00  6.1765836622853294e-02 2.4014695023019100e-02 0.0000000000000000e+00  6.8822181416591230e-02 2.8181198470840829e-02 0.0000000000000000e+00  6.8784562966722126e-02 -2.8146884058641911e-02 0.0000000000000000e+00  8.0138167051643699e-02 -2.8226261169732713e-02 0.0000000000000000e+00  4.1358947093867243e-01 6.6531880052538982e-04 0.0000000000000000e+00  3.5989911474965347e-01 -1.3758432389913984e-02 0.0000000000000000e+00  9.2498630321396524e-01 -1.7865402206779742e-02 0.0000000000000000e+00  7.8502660098682497e-01 -3.7904648828688491e-03 0.0000000000000000e+00  9.5590810420172001e-01 2.8970314759496602e-02 0.0000000000000000e+00  2.7139551578478782e-01 -2.0473689462144212e-02 0.0000000000000000e+00  7.6983494629782001e-01 -1.0645662143947100e-03 0.0000000000000000e+00  3.6803986968107633e-01 2.1638973564012389e-03 0.0000000000000000e+00  8.0258224579567738e-01 -7.9567291740621565e-04 0.0000000000000000e+00  7.1089597585948383e-01 -1.6816769564111128e-01 0.0000000000000000e+00  8.3829975771042031e-01 6.5529170707547851e-02 0.0000000000000000e+00  8.6395302410761510e-01 -3.1955927418301888e-02 0.0000000000000000e+00  3.7472931230451084e-01 -3.8210819336539480e-03 0.0000000000000000e+00  7.7735464540570387e-01 1.0733868333476519e-03 0.0000000000000000e+00  1.6050913992997742e-01 3.1012239014097307e-02 0.0000000000000000e+00  7.9650965580636912e-01 -8.0291839142614899e-03 0.0000000000000000e+00  8.0170757441492146e-01 4.6699122171881609e-02 0.0000000000000000e+00  9.8508255423815783e-01 1.3902226688192843e-02 0.0000000000000000e+00  2.4985736032111169e-01 1.7369183324609197e-02 0.0000000000000000e+00  8.1048639532104305e-01 -1.0762972326742410e-02 0.0000000000000000e+00  9.1402609228553655e-01 -8.5136509673224656e-02 0.0000000000000000e+00  3.6052083293089277e-01 -1.0211022475794538e-02 0.0000000000000000e+00  8.2138298488683459e-01 -4.1098610777776107e-04 0.0000000000000000e+00  9.4964154316243232e-01 -3.3955133963020190e-02 0.0000000000000000e+00  8.4319568853439641e-01 1.3139177825643686e-01 0.0000000000000000e+00  9.4849201666635696e-01 3.4644002642749971e-02 0.0000000000000000e+00  8.4414628966277339e-01 -1.3495851025990688e-01 0.0000000000000000e+00  6.9870290821901360e-01 -4.4549470091353335e-02 0.0000000000000000e+00  1.4716886340667282e-01 -3.1209029082462831e-02 0.0000000000000000e+00  2.6840520827045089e-01 2.6966515623072639e-02 0.0000000000000000e+00  3.0868011215848568e-01 1.6072161479989275e-02 0.0000000000000000e+00  5.9184900173932331e-01 2.0171566134311422e-02 0.0000000000000000e+00  8.2601852724535785e-01 2.1082038913415417e-02 0.0000000000000000e+00  6.6179306234640978e-01 1.3907190467824155e-03 0.0000000000000000e+00  3.1895897549794011e-01 -3.6112417979439941e-03 0.0000000000000000e+00  9.2330163474728755e-01 -5.9965602829324454e-03 0.0000000000000000e+00  6.6589926469794236e-01 -3.2490258226385571e-02 0.0000000000000000e+00  2.7261972579648119e-01 2.2511386296723448e-03 0.0000000000000000e+00  2.4213258941837709e-01 -1.9645980391684796e-02 0.0000000000000000e+00  6.3950394727856519e-01 -1.3243291578082963e-03 0.0000000000000000e+00  3.4484608115294113e-01 8.2685851420052775e-03 0.0000000000000000e+00  7.9878864559365070e-01 2.2177287512384803e-03 0.0000000000000000e+00  7.2113383618795990e-01 1.8118042843553914e-03 0.0000000000000000e+00  6.1734825783522795e-01 5.8296065768510662e-03 0.0000000000000000e+00  2.8664366035616706e-01 5.8259665244874770e-03 0.0000000000000000e+00  8.2435169626432692e-01 8.9787034907242748e-03 0.0000000000000000e+00  7.9013778414560365e-01 1.5632598550656979e-02 0.0000000000000000e+00  5.2901298401006547e-01 -5.1793443495352677e-02 0.0000000000000000e+00  6.7558743287167633e-01 5.8368107450312762e-02 0.0000000000000000e+00  9.6205531409291434e-01 -2.9614203595625319e-02 0.0000000000000000e+00  8.2195801896322107e-01 -8.0791779904461488e-04 0.0000000000000000e+00  8.1225319027289355e-01 -2.5686540237680896e-04 0.0000000000000000e+00  8.3030952832509108e-01 2.9774619311691326e-05 0.0000000000000000e+00  7.0486016700688636e-01 2.3600553401774693e-02 0.0000000000000000e+00  5.5657512909344231e-01 -1.4225300672152993e-01 0.0000000000000000e+00  7.1692805444586105e-01 1.6682161685260277e-01 0.0000000000000000e+00  2.8367626080918090e-01 4.5105108842502886e-04 0.0000000000000000e+00  6.4480034344820014e-01 -3.3686968065259913e-02 0.0000000000000000e+00  6.2090826786661402e-01 1.1368973574303944e-02 0.0000000000000000e+00  6.5714300742679177e-01 -1.4541246050136880e-01 0.0000000000000000e+00  6.6291943679229848e-01 1.4311155688001737e-01 0.0000000000000000e+00  8.1784519594017024e-01 5.5404656483586764e-05 0.0000000000000000e+00  8.4346460340246920e-01 1.2614027513017123e-03 0.0000000000000000e+00  7.7943939287328023e-01 5.8398314621058101e-02 0.0000000000000000e+00  7.7257325790251419e-01 -6.2367366225835490e-02 0.0000000000000000e+00  3.1952624663763235e-01 -6.9855751922790344e-04 0.0000000000000000e+00  5.8266305176343414e-01 3.0487057135971957e-02 0.0000000000000000e+00  5.8264177949092244e-01 -3.0510724473239326e-02 0.0000000000000000e+00  3.6416973941828235e-01 -1.0249189399042657e-01 0.0000000000000000e+00  6.4102694422532436e-01 2.9546830824086373e-03 0.0000000000000000e+00  5.9282247401699162e-01 8.7437508079008228e-02 0.0000000000000000e+00  8.9630225782005457e-01 -2.3121306697774765e-03 0.0000000000000000e+00  6.2408619960829481e-01 6.7564044697895572e-04 0.0000000000000000e+00  6.4513218316107590e-01 -7.0451450792990728e-04 0.0000000000000000e+00  6.2316366969881709e-01 5.6190838433107203e-03 0.0000000000000000e+00  2.9780387753115539e-01 6.5876996822104752e-02 0.0000000000000000e+00  5.6104902869479634e-01 -8.7452298958972302e-02 0.0000000000000000e+00  6.6667124103122588e-01 -7.6220995318743929e-03 0.0000000000000000e+00  6.7488365196939482e-01 -1.7581175127986269e-03 0.0000000000000000e+00  2.8474899166712836e-01 -3.7053332710044047e-04 0.0000000000000000e+00  2.7683683638176687e-01 -3.6524748200893751e-03 0.0000000000000000e+00  8.4767561142299530e-01 -3.2611552173943861e-02 0.