<?xml version="1.0"?>
<VTKFile type="UnstructuredGrid"  version="0.1"  >
<UnstructuredGrid>
<Piece  NumberOfPoints="406" NumberOfCells="722">
<Points>
<DataArray  type="Float64"  NumberOfComponents="3"  format="ascii">-6 -2 0  -6 2 0  6 2 0  6 -2 0  -2.8 0 0  -1.2 0 0  -5.500000000001853 -2 0  -5.000000000003705 -2 0  -4.500000000005556 -2 0  -4.000000000007409 -2 0  -3.50000000000926 -2 0  -3.000000000011112 -2 0  -2.500000000012963 -2 0  -2.000000000014814 -2 0  -1.500000000016665 -2 0  -1.000000000018516 -2 0  -0.5000000000203677 -2 0  -2.204547655537681e-11 -2 0  0.4999999999796305 -2 0  0.9999999999814779 -2 0  1.499999999983327 -2 0  1.999999999985175 -2 0  2.499999999987029 -2 0  2.999999999988882 -2 0  3.499999999990735 -2 0  3.999999999992589 -2 0  4.49999999999444 -2 0  4.999999999996293 -2 0  5.499999999998147 -2 0  6 -1.500000000001387 0  6 -1.000000000002774 0  6 -0.5000000000041616 0  6 -5.505595979116151e-12 0  6 0.4999999999958384 0  6 0.9999999999972258 0  6 1.499999999998613 0  5.500000000001853 2 0  5.000000000003705 2 0  4.500000000005556 2 0  4.000000000007409 2 0  3.50000000000926 2 0  3.000000000011112 2 0  2.500000000012963 2 0  2.000000000014814 2 0  1.500000000016665 2 0  1.000000000018516 2 0  0.5000000000203677 2 0  2.204547655537681e-11 2 0  -0.4999999999796305 2 0  -0.9999999999814779 2 0  -1.499999999983327 2 0  -1.999999999985175 2 0  -2.499999999987029 2 0  -2.999999999988882 2 0  -3.499999999990735 2 0  -3.999999999992589 2 0  -4.49999999999444 2 0  -4.999999999996293 2 0  -5.499999999998147 2 0  -6 1.500000000001387 0  -6 1.000000000002774 0  -6 0.5000000000041616 0  -6 5.505595979116151e-12 0  -6 -0.4999999999958384 0  -6 -0.9999999999972258 0  -6 -1.499999999998613 0  -2.776753453941174 -0.1914525314286965 0  -2.708364820523325 -0.3717785376335722 0  -2.598808598538216 -0.5304981265911284 0  -2.454451797386757 -0.65838709271366 0  -2.283683909636528 -0.748012994147384 0  -2.096429344207466 -0.7941670992780535 0  -1.903570655798842 -0.7941670992788195 0  -1.716316090368095 -0.7480129941491368 0  -1.545548202616307 -0.6583870927157747 0  -1.401191401463757 -0.530498126593356 0  -1.291635179477527 -0.371778537635196 0  -1.223246546059047 -0.1914525314295925 0  -1.223246546058803 0.1914525314286035 0  -1.291635179476594 0.3717785376334188 0  -1.401191401461634 0.5304981265909601 0  -1.545548202612898 0.6583870927134221 0  -1.716316090363093 0.7480129941472402 0  -1.903570655792394 0.7941670992780367 0  -2.096429344201276 0.7941670992788055 0  -2.283683909631911 0.7480129941491347 0  -2.454451797383697 0.6583870927157729 0  -2.598808598536385 0.530498126593196 0  -2.70836482052258 0.3717785376349917 0  -2.776753453940975 0.1914525314295042 0  0.4588466633941945 0.2704149791022056 0  -4.424312812173863 0.2760319703992994 0  -3.803977598762586 -0.6841584599595646 0  -0.1330968762779425 -0.6798763971615133 0  2.451109587541276 3.169800318630399e-13 0  -3.563610936250569 0.5929994091167295 0  4.204753319582647 0.2820669554523581 0  -0.4390897559348154 0.6178095532273566 0  -3.041446812595122 1.175550440315544 0  -0.9622132806516797 1.132103015222783 0  1.069493318942931 -0.773608156980569 0  -4.924330687080279 -0.7127064269610045 0  -3.024693497948964 -1.195179289656404 0  -0.9648749555625579 -1.256854520022574 0  -3.443624282349383 -0.2044158249759613 0  -0.5611500783757608 -0.1747080110423833 0  1.60270880116926 0.7487034276124258 0  3.488352576142236 -0.8228939860777884 0  4.816375011670135 -0.8163750116689444 0  3.243628045085357 0.8578172796997985 0  -4.228632884234073 1.228069101636678 0  -2.365220384435482 -1.356128547810356 0  -1.637465979486354 1.3571687267915 0  -1.642380978561139 -1.359365080147485 0  -2.362988915989869 1.356737096243695 0  -5.134120367293631 0.8356299802910161 0  2.077496878467794 -0.9514080034522553 0  4.960859291178299 0.9608592911785537 0  0.3293120056474302 1.148965409695154 0  -5.157560560414062 0.09447106214747865 0  -3.14779387667392 -0.6330563038825547 0  -3.148134455585257 0.4354299640428653 0  -0.8464439673630421 0.4159277415926296 0  -0.9918125625721008 -0.7191748422889824 0  -4.355349213295776 -1.234510499778242 0  1.582074659164868 -0.06850205959954866 0  2.400584045214166 1.204278622181321 0  5.102831660739063 0.03453404176596848 0  4.083259768981113 1.154272958349666 0  -3.992394834362243 -0.1621022234411988 0  0.4290302718942113 -1.225465289645401 0  -3.681487986394671 -1.310544246656267 0  -3.640289698916164 1.187023654838123 0  0.468851680921228 -0.447055967952278 0  3.315209904217932 0.05667935655546536 0  -2.541160649745046 -1.046980928586996 0  -1.45196684542695 1.044189935346116 0  -2.000844595891861 -1.207983108473125 0  -1.453092202970521 -1.061139264918894 0  -2.000050543938391 1.207806685704176 0  -2.548033154566413 1.04418993534851 0  4.13054585796652 -1.232871249381608 0  -0.3301617095463629 1.221692405319566 0  -0.2880491989587189 -1.359626628407983 0  -0.0758941643813178 0.132275811829787 0  2.826389221580753 -1.233168480096227 0  -2.922070412327736 0.7575752117792038 0  1.003070890178416 1.271347915034201 0  -5.319521816151902 -1.310543894393663 0  -1.070407062963812 0.7877698545098388 0  -4.562499863038985 -0.2302396981426722 0  -3.164226661545047 0.07179577787350272 0  -0.9091377812900333 0.132454654016971 0  4.116029045943655 -0.4851826871817362 0  5.316659189209927 -1.316659189208741 0  -0.9498828454673396 -0.4149758979014553 0  -4.037769805263969 0.6896174350675625 0  1.431664772855882 -1.327784137638992 0  -3.646693623568034 0.1600006358878044 0  -2.878371345483476 -0.7910345833001061 0  1.062603041385242 0.2894765870627741 0  -0.547955103783681 0.1635272504420374 0  -4.804809838419659 1.41016301576038 0  -3.042895319571192 -0.3694931303482478 0  -4.59252578392403 0.792267765362792 0  2.823271260730033 -0.5472430318427347 0  -4.28575390662405 -0.7521491832384866 0  -0.5524005545121191 -0.9037367558558163 0  1.815219025072439 1.388812135783969 0  -1.288398729718543 -0.8178399475601057 0  -5.424388493366639 1.35375165044146 0  -2.256991952837567 -1.049538527273222 0  -1.739586738723494 -1.052327527873255 0  -1.738827359988536 1.050180627239116 0  -2.257795730428802 1.049701225145305 0  -0.62222340523776 -0.5483611729237363 0  2.065188519029698 0.5424877383589943 0  0.1055865106318892 0.7347782870471022 0  1.013082573993895 -0.2061877611231605 0  -5.428323520618333 -0.4386412085227075 0  5.374041502384443 -0.5304401760993408 0  3.435185060219232 -1.377658617395091 0  -3.302377238490527 0.8841390072780534 0  -0.9902123298072768 -0.124175295282554 0  0.7186958547669859 0.8724503317343631 0  2.941237214953417 1.390391532351976 0  4.708037787864423 -1.340276032051348 0  5.395029680982659 1.395029680983341 0  3.591022587550188 1.348260650408605 0  2.759385971589342 0.4857447325740718 0  -0.6832705231418494 0.8879387563573758 0  5.437781298507145 0.5981501503262471 0  -2.698603003287285 1.617130043745112 0  -3.463358189947519 -1.013588318179017 0  1.710866040171871 -0.6978716337870808 0  3.642182982762737 0.4555704362064124 0  -2.699802128031161 -1.618310703146212 0  -1.3020054856637 1.619819977935582 0  -2.000000000004996 -1.566396763829867 0  -1.999999999994794 1.566396763830688 0  -1.247812462071684 -1.595232739507426 0  4.59429106759859 1.420052135572917 0  0.9448382581152466 -1.440259145469251 0  -0.116376100998861 -0.2606209011258676 0  -4.774521510507792 0.4245390872783272 0  -2.983910172370106 -0.1208000607277856 0  -3.353983741142061 1.576062863985777 0  -5.473352579109997 0.4917619255280954 0  -4.828650470275986 -1.493148538517745 0  4.639973657165532 -0.2833178611094909 0  -2.660279445404468 0.7699932347178977 0  -1.335045190775955 0.7744876666923373 0  -3.395669172689978 0.2584951122361346 0  2.279110606119369 -1.465899541383697 0  4.734317729212562 0.4520963557364723 0  -0.6334913028224612 1.584213953723378 0  2.121854101359879 -0.4289611127787379 0  -3.474459720833238 -0.4977581316675216 0  -1.066539898844178 0.3411379476537602 0  -3.361849707555382 -1.611428512420182 0  -4.099039818938317 0.3306400369415774 0  -2.935324777364672 0.354721898811665 0  -3.973578595052027 1.482940358734671 0  3.784450148635689 -0.0702780807301525 0  -1.191348122671212 -0.5614501189722798 0  -2.838672605956353 -0.5493179047027598 0  -1.184983441257359 0.5617520886612424 0  -2.811184099847449 0.5574240755049175 0  0.2702752249355158 -0.8003643570420809 0  -0.6945947797857237 -1.593893965175195 0  0.001175881878679056 1.504521009023778 0  0.6072931735145096 1.501814722697789 0  -3.991896293645949 -1.047264188412552 0  -3.734097395159253 -0.3261671578666079 0  -5.539652387691843 -0.8857154182585802 0  -4.395061924111849 1.563293728588296 0  0.2258327611651416 -0.08745142624872881 0  -3.774816634825771 0.8676973328379478 0  2.208484493569073 1.6256686312487 0  0.1309939514660535 -1.566169703482512 0  -5.551414360955331 0.9459842275970113 0  -4.04734138658365 -1.51163984963472 0  -4.947145019546805 -0.3299925153029702 0  4.320410447198621 0.6970857582435144 0  -4.707557346727139 -1.000565649857444 0  1.353711468973986 1.582551234446199 0  1.674156483558973 0.3266252271732694 0  -4.039105552973997 -0.4537604746027087 0  0.01051727619263377 -1.088858357362194 0  -0.2234942609176301 0.8619127912343982 0  -2.95903482691863 0.1219373374385197 0  -4.682467695920681 0.0804575682243254 0  5.535750224195656 -0.1525732643419722 0  -4.290083947414376 -0.0005258314026840717 0  1.136102562417988 0.7655312464039168 0  -2.816589394567214 0.9927597419785312 0  -2.645374456162409 -0.7645902451387543 0  4.18414576655837 1.624276131878667 0  0.7127337088822223 -0.9006358935856398 0  1.972418102153911 0.9727040774616764 0  -2.42199174813501 0.8591219219254587 0  -2.418604734200992 -0.8552987735117754 0  -5.573597213364169 -0.03612430678117123 0  2.024792870869397 0.05574071630590883 0  -1.578875191508968 0.861424470724936 0  -1.54706008231699 -0.8630049102346303 0  3.848662181064435 -1.569601980075533 0  -2.000000000003871 -0.9746445732264465 0  -1.99999999
[...]
<PointData  Vectors="f_22"> 
<DataArray  type="Float64"  Name="f_22"  NumberOfComponents="3" format="ascii">0.0000000000000000e+00 0.0000000000000000e+00 0.0000000000000000e+00  0.0000000000000000e+00 0.0000000000000000e+00 0.0000000000000000e+00  0.0000000000000000e+00 0.0000000000000000e+00 0.0000000000000000e+00  0.0000000000000000e+00 0.0000000000000000e+00 0.0000000000000000e+00  9.9999995856933444e-01 0.0000000000000000e+00 0.0000000000000000e+00  9.9999995856933444e-01 0.0000000000000000e+00 0.0000000000000000e+00  0.0000000000000000e+00 0.0000000000000000e+00 0.0000000000000000e+00  0.0000000000000000e+00 0.0000000000000000e+00 0.0000000000000000e+00  0.0000000000000000e+00 0.0000000000000000e+00 0.0000000000000000e+00  0.0000000000000000e+00 0.0000000000000000e+00 0.0000000000000000e+00  0.0000000000000000e+00 0.0000000000000000e+00 0.0000000000000000e+00  0.0000000000000000e+00 0.0000000000000000e+00 0.0000000000000000e+00  0.0000000000000000e+00 0.0000000000000000e+00 0.0000000000000000e+00  0.0000000000000000e+00 0.0000000000000000e+00 0.0000000000000000e+00  0.0000000000000000e+00 0.0000000000000000e+00 0.0000000000000000e+00  0.0000000000000000e+00 0.0000000000000000e+00 0.0000000000000000e+00  0.0000000000000000e+00 0.0000000000000000e+00 0.0000000000000000e+00  0.0000000000000000e+00 0.0000000000000000e+00 0.0000000000000000e+00  0.0000000000000000e+00 0.0000000000000000e+00 0.0000000000000000e+00  0.0000000000000000e+00 0.0000000000000000e+00 0.0000000000000000e+00  0.0000000000000000e+00 0.0000000000000000e+00 0.0000000000000000e+00  0.0000000000000000e+00 0.0000000000000000e+00 0.0000000000000000e+00  0.0000000000000000e+00 0.0000000000000000e+00 0.0000000000000000e+00  0.0000000000000000e+00 0.0000000000000000e+00 0.0000000000000000e+00  0.0000000000000000e+00 0.0000000000000000e+00 0.0000000000000000e+00  0.0000000000000000e+00 0.0000000000000000e+00 0.0000000000000000e+00  0.0000000000000000e+00 0.0000000000000000e+00 0.0000000000000000e+00  0.0000000000000000e+00 0.0000000000000000e+00 0.0000000000000000e+00  0.0000000000000000e+00 0.0000000000000000e+00 0.0000000000000000e+00  3.2720094395108773e-01 -1.4117724725947340e-04 0.0000000000000000e+00  5.5965930957525667e-01 -2.7141281982265720e-04 0.0000000000000000e+00  6.8765475940274778e-01 -2.7720092675769312e-04 0.0000000000000000e+00  7.2841662105652794e-01 -2.9535144469634295e-05 0.0000000000000000e+00  6.8758782847951183e-01 2.2764224674686511e-04 0.0000000000000000e+00  5.5967372046385833e-01 2.6327893333529857e-04 0.0000000000000000e+00  3.2729631768230155e-01 1.1478140039496333e-04 0.0000000000000000e+00  0.0000000000000000e+00 0.0000000000000000e+00 0.0000000000000000e+00  0.0000000000000000e+00 0.0000000000000000e+00 0.0000000000000000e+00  0.0000000000000000e+00 0.0000000000000000e+00 0.0000000000000000e+00  0.0000000000000000e+00 0.0000000000000000e+00 0.0000000000000000e+00  0.0000000000000000e+00 0.0000000000000000e+00 0.0000000000000000e+00  0.0000000000000000e+00 0.0000000000000000e+00 0.0000000000000000e+00  0.0000000000000000e+00 0.0000000000000000e+00 0.0000000000000000e+00  0.0000000000000000e+00 0.0000000000000000e+00 0.0000000000000000e+00  0.0000000000000000e+00 0.0000000000000000e+00 0.0000000000000000e+00  0.0000000000000000e+00 0.0000000000000000e+00 0.0000000000000000e+00  0.0000000000000000e+00 0.0000000000000000e+00 0.0000000000000000e+00  0.0000000000000000e+00 0.0000000000000000e+00 0.0000000000000000e+00  0.0000000000000000e+00 0.0000000000000000e+00 0.0000000000000000e+00  0.0000000000000000e+00 0.0000000000000000e+00 0.0000000000000000e+00  0.0000000000000000e+00 0.0000000000000000e+00 0.0000000000000000e+00  0.0000000000000000e+00 0.0000000000000000e+00 0.0000000000000000e+00  0.0000000000000000e+00 0.0000000000000000e+00 0.0000000000000000e+00  0.0000000000000000e+00 0.0000000000000000e+00 0.0000000000000000e+00  0.0000000000000000e+00 0.0000000000000000e+00 0.0000000000000000e+00  0.0000000000000000e+00 0.0000000000000000e+00 0.0000000000000000e+00  0.0000000000000000e+00 0.0000000000000000e+00 0.0000000000000000e+00  0.0000000000000000e+00 0.0000000000000000e+00 0.0000000000000000e+00  0.0000000000000000e+00 0.0000000000000000e+00 0.0000000000000000e+00  3.2496876564941402e-01 -7.7215262072739192e-04 0.0000000000000000e+00  5.5859107409694420e-01 -1.3066363728087684e-03 0.0000000000000000e+00  6.8925556683528155e-01 -1.0586660389025747e-03 0.0000000000000000e+00  7.3179467621520722e-01 -3.8513843156342449e-05 0.0000000000000000e+00  6.8993646082481430e-01 1.1709641158971881e-03 0.0000000000000000e+00  5.5882675869513199e-01 1.3674722998058605e-03 0.0000000000000000e+00  3.2491429728263149e-01 8.1447170388159514e-04 0.0000000000000000e+00  9.9999995856933444e-01 0.0000000000000000e+00 0.0000000000000000e+00  9.9999995856933444e-01 0.0000000000000000e+00 0.0000000000000000e+00  9.9999995856933444e-01 0.0000000000000000e+00 0.0000000000000000e+00  9.9999995856933444e-01 0.0000000000000000e+00 0.0000000000000000e+00  9.9999995856933444e-01 0.0000000000000000e+00 0.0000000000000000e+00  9.9999995856933444e-01 0.0000000000000000e+00 0.0000000000000000e+00  9.9999995856933444e-01 0.0000000000000000e+00 0.0000000000000000e+00  9.9999995856933444e-01 0.0000000000000000e+00 0.0000000000000000e+00  9.9999995856933444e-01 0.0000000000000000e+00 0.0000000000000000e+00  9.9999995856933444e-01 0.0000000000000000e+00 0.0000000000000000e+00  9.9999995856933444e-01 0.0000000000000000e+00 0.0000000000000000e+00  9.9999995856933444e-01 0.0000000000000000e+00 0.0000000000000000e+00  9.9999995856933444e-01 0.0000000000000000e+00 0.0000000000000000e+00  9.9999995856933444e-01 0.0000000000000000e+00 0.0000000000000000e+00  9.9999995856933444e-01 0.0000000000000000e+00 0.0000000000000000e+00  9.9999995856933444e-01 0.0000000000000000e+00 0.0000000000000000e+00  9.9999995856933444e-01 0.0000000000000000e+00 0.0000000000000000e+00  9.9999995856933444e-01 0.0000000000000000e+00 0.0000000000000000e+00  9.9999995856933444e-01 0.0000000000000000e+00 0.0000000000000000e+00  9.9999995856933444e-01 0.0000000000000000e+00 0.0000000000000000e+00  9.9999995856933444e-01 0.0000000000000000e+00 0.0000000000000000e+00  9.9999995856933444e-01 0.0000000000000000e+00 0.0000000000000000e+00  9.9999995856933444e-01 0.0000000000000000e+00 0.0000000000000000e+00  9.9999995856933444e-01 0.0000000000000000e+00 0.0000000000000000e+00  8.2731037394360896e-01 2.1385352989203455e-02 0.0000000000000000e+00  7.3068068519772433e-01 -7.0750017322323572e-03 0.0000000000000000e+00  6.6409813452518474e-01 4.2048442719502678e-02 0.0000000000000000e+00  7.1704294132006163e-01 -6.2854480623413284e-02 0.0000000000000000e+00  7.5751314033884520e-01 1.2688584346941872e-05 0.0000000000000000e+00  7.0074840335259281e-01 -6.1887367964723716e-02 0.0000000000000000e+00  7.1961221455192126e-01 1.7271363893771538e-03 0.0000000000000000e+00  7.7674758797852561e-01 6.9111698621010062e-02 0.0000000000000000e+00  3.9244307515840932e-01 -1.1837790606603396e-01 0.0000000000000000e+00  3.7067413946777200e-01 1.1168487234692559e-01 0.0000000000000000e+00  6.3420936620164747e-01 -3.2294714687801450e-02 0.0000000000000000e+00  6.4667896602625285e-01 5.5625081435017338e-03 0.0000000000000000e+00  3.7787673518742343e-01 1.1755284955708604e-01 0.0000000000000000e+00  2.5300849477779302e-01 -9.7316866670384361e-02 0.0000000000000000e+00  8.0628260323564083e-01 3.3951441298097046e-02 0.0000000000000000e+00  9.4142303680633554e-01 -1.8958389257171897e-02 0.0000000000000000e+00  6.4033018516131524e-01 2.1758119537833957e-02 0.0000000000000000e+00  6.1481275306512495e-01 -5.6428155222214612e-03 0.0000000000000000e+00  6.1748488133061075e-01 -1.6400019192204399e-03 0.0000000000000000e+00  6.0364940236635967e-01 6.7317372551046082e-03 0.0000000000000000e+00  4.5450170348121943e-01 -1.5435161899149587e-02 0.0000000000000000e+00  1.1220481867854518e-01 1.1904187915021473e-01 0.0000000000000000e+00  6.3229610299402689e-02 3.1740934948013402e-02 0.0000000000000000e+00  6.0982095430777275e-02 -3.0436416288407733e-02 0.0000000000000000e+00  1.1126706565853531e-01 -1.1876699602680031e-01 0.0000000000000000e+00  6.1221972252301748e-01 -3.8238831863289216e-03 0.0000000000000000e+00  5.6557115585536577e-01 -1.4941021003967674e-02 0.0000000000000000e+00  5.7268822035830769e-01 1.2745679934719448e-03 0.0000000000000000e+00  4.3155391147269045e-01 4.8835702711165475e-02 0.0000000000000000e+00  7.3302079306567380e-01 -5.4477818582204080e-04 0.0000000000000000e+00  7.0875671675493601e-01 1.3364721509211683e-01 0.0000000000000000e+00  7.9760253287824823e-01 -1.1061515672916747e-01 0.0000000000000000e+00  9.2426223455100665e-01 4.7582090402090660e-02 0.0000000000000000e+00  7.7781258307776135e-01 -9.6475043359568136e-02 0.0000000000000000e+00  4.5422020423077358e-01 1.2310285958270210e-02 0.0000000000000000e+00  7.8434157292509399e-01 -2.9055595645145378e-03 0.0000000000000000e+00  4.6163291343864171e-01 9.1316514737007533e-03 0.0000000000000000e+00  7.2935528686430384e-01 6.4455034501986831e-05 0.0000000000000000e+00  4.9716958433042729e-01 2.6863422795782000e-03 0.0000000000000000e+00  7.5741548822138660e-01 9.7170466153441368e-03 0.0000000000000000e+00  3.9195448797591392e-01 -4.1477235566292153e-02 0.0000000000000000e+00  3.9112359026638094e-01 3.4684833150534368e-02 0.0000000000000000e+00  4.5207820945661226e-01 -4.4583805907593838e-02 0.0000000000000000e+00  7.7987734766010819e-01 -3.3534266450053182e-02 0.0000000000000000e+00  7.4131096328995960e-01 7.5310670827479908e-04 0.0000000000000000e+00  3.6960277290467142e-01 2.0727336842573618e-01 0.0000000000000000e+00  4.3439341107724416e-01 1.0337122761136952e-01 0.0000000000000000e+00  1.6808178499780027e-01 5.9107937676176010e-02 0.0000000000000000e+00  4.1163975518768225e-01 -1.0202258659198432e-01 0.0000000000000000e+00  1.6823418412866362e-01 -5.8813261910324544e-02 0.0000000000000000e+00  3.7369033911505134e-01 -2.0762189980613588e-01 0.0000000000000000e+00  4.6260733633027051e-01 -2.2809592712367127e-03 0.0000000000000000e+00  3.4599348703658833e-01 7.3053606206595373e-02 0.0000000000000000e+00  2.5579664293656901e-01 -5.7961810978795235e-02 0.0000000000000000e+00  8.9559340462773240e-01 1.2801838049114169e-02 0.0000000000000000e+00  4.5344978594902730e-01 -6.4351586961344277e-03 0.0000000000000000e+00  6.4156588560359151e-01 -1.9273884589932105e-01 0.0000000000000000e+00  3.9388989033631405e-01 2.4629467515569110e-02 0.0000000000000000e+00  4.2561367925102106e-01 1.9462940393765243e-03 0.0000000000000000e+00  7.2861094685743633e-01 1.0621049579128969e-01 0.0000000000000000e+00  7.3227204220673381e-01 4.6323776702017682e-03 0.0000000000000000e+00  8.8163229903391604e-01 -2.0584692530524858e-02 0.0000000000000000e+00  9.8272866606296994e-01 1.1087888096860720e-02 0.0000000000000000e+00  6.9290376895578365e-01 -2.8513035894126609e-03 0.0000000000000000e+00  4.2549246456075146e-01 -4.8887351933267779e-04 0.0000000000000000e+00  9.4068751465128819e-01 -4.3701982307189705e-02 0.0000000000000000e+00  6.5850826252752914e-01 -2.7519218161081258e-02 0.0000000000000000e+00  3.7992486886493421e-01 -1.5523406138557991e-02 0.0000000000000000e+00  7.8560122316098202e-01 -1.8078774673209640e-02 0.0000000000000000e+00  6.1703795216999135e-01 2.0205618732157971e-01 0.0000000000000000e+00  7.8533327673263242e-01 1.6787245811481180e-02 0.0000000000000000e+00  9.4151517990046119e-01 1.7633385850285340e-02 0.0000000000000000e+00  3.7076786367897580e-01 -3.9651298479942672e-03 0.0000000000000000e+00  8.4497122861629592e-01 1.1683261335774317e-01 0.0000000000000000e+00  6.2545511850402191e-01 -1.0345591571706262e-02 0.0000000000000000e+00  6.8847831953132677e-01 -8.1568695912320518e-03 0.0000000000000000e+00  6.3831190621478651e-01 1.8118455604922586e-02 0.0000000000000000e+00  5.8719454693300743e-01 -9.4278727417557717e-02 0.0000000000000000e+00  3.5871358472817538e-01 9.9486496307534290e-03 0.0000000000000000e+00  7.3058152781457375e-01 -1.0453383699703327e-01 0.0000000000000000e+00  4.0399216931085463e-01 -1.5149925597202803e-03 0.0000000000000000e+00  3.3720495696989400e-01 1.5105279502055166e-01 0.0000000000000000e+00  3.9434057919525578e-01 -4.4312658246153214e-02 0.0000000000000000e+00  3.9781487451396824e-01 4.4776439967908116e-02 0.0000000000000000e+00  3.3693631551099096e-01 -1.5133152688983154e-01 0.0000000000000000e+00  8.3498183813056492e-01 -6.6995956261068357e-02 0.0000000000000000e+00  6.9794070087518989e-01 1.3716531808432702e-02 0.0000000000000000e+00  6.7387650125351906e-01 5.7693811268935129e-02 0.0000000000000000e+00  8.0138220861601162e-01 -1.2700124509495789e-02 0.0000000000000000e+00  7.0033041688242881e-01 1.5922369231541763e-03 0.0000000000000000e+00  6.8271997341322299e-01 -6.9336629657026536e-04 0.0000000000000000e+00  3.8787291913230293e-01 -3.0242523356860322e-03 0.0000000000000000e+00  5.8331590549884516e-01 -1.0316207617831537e-01 0.0000000000000000e+00  9.8975234271045853e-01 -8.3016555707360364e-03 0.0000000000000000e+00  5.9069427621370429e-01 4.1770757914994405e-02 0.0000000000000000e+00  3.7640484657397544e-01 4.2368422656130231e-03 0.0000000000000000e+00  4.1304863851881868e-01 -9.5854945043542263e-04 0.0000000000000000e+00  3.8551150137467566e-01 3.8618455092780389e-04 0.0000000000000000e+00  4.0388604071688017e-01 2.8524780487015175e-03 0.0000000000000000e+00  7.0191416856836508e-01 8.0286510348780236e-03 0.0000000000000000e+00  6.0493356433701495e-01 1.0154567299640978e-01 0.0000000000000000e+00  6.6989861051479949e-01 6.3808871133803370e-04 0.0000000000000000e+00  8.2484181359423273e-02 -5.1888932488380883e-02 0.0000000000000000e+00  5.2672420634111861e-01 7.3186929783855034e-02 0.0000000000000000e+00  6.5719365619743975e-01 -1.9835557756937280e-02 0.0000000000000000e+00  7.0015468830533889e-01 4.0454281892824224e-03 0.0000000000000000e+00  8.2295274873460916e-02 5.1547845829480965e-02 0.0000000000000000e+00  -3.8799067999456233e-02 3.2379557754462308e-02 0.0000000000000000e+00  -5.0477192677455200e-02 3.3532952339072386e-02 0.0000000000000000e+00  -5.0501345815546182e-02 -3.3496702055180731e-02 0.0000000000000000e+00  -2.0798781431262466e-02 -3.7901590195370490e-02 0.0000000000000000e+00  3.7059032904312306e-01 8.8088935517556294e-04 0.0000000000000000e+00  3.0102565781911733e-01 -1.7801915149873854e-02 0.0000000000000000e+00  8.7892647197469498e-01 -2.5518325831955749e-02 0.0000000000000000e+00  7.0601389047972973e-01 -5.3547085550078701e-03 0.0000000000000000e+00  9.3310455822020588e-01 4.3602598589799882e-02 0.0000000000000000e+00  2.1547153506836356e-01 -2.8083549018904617e-02 0.0000000000000000e+00  6.9148919681208354e-01 -1.5191815497568530e-03 0.0000000000000000e+00  3.2543080223462423e-01 3.0408101156057937e-03 0.0000000000000000e+00  7.1756495909319395e-01 -1.1286813375706024e-03 0.0000000000000000e+00  6.3551360727072914e-01 -2.2557191928687059e-01 0.0000000000000000e+00  7.9056166040295761e-01 9.1603893605623377e-02 0.0000000000000000e+00  8.0473858207958127e-01 -4.6043517651797830e-02 0.0000000000000000e+00  3.2689273960613374e-01 -5.5476379948883707e-03 0.0000000000000000e+00  6.9638457002494092e-01 1.4751930138853339e-03 0.0000000000000000e+00  8.1773113208511397e-02 3.9486467541226637e-02 0.0000000000000000e+00  7.2261892013456452e-01 -1.1338544000018089e-02 0.0000000000000000e+00  7.3635814478802608e-01 6.6277185706676692e-02 0.0000000000000000e+00  9.7582193993062982e-01 2.5105317774950408e-02 0.0000000000000000e+00  1.9673134624896535e-01 2.3821987862000300e-02 0.0000000000000000e+00  7.3387602229414783e-01 -1.5154398504515557e-02 0.0000000000000000e+00  8.8002297415874531e-01 -1.2503969959233616e-01 0.0000000000000000e+00  3.1231507346344795e-01 -1.4267728442858285e-02 0.0000000000000000e+00  7.3580663545729830e-01 -6.6138004426578661e-04 0.0000000000000000e+00  9.2863045823726120e-01 -5.2397433726465804e-02 0.0000000000000000e+00  7.9305012624906834e-01 1.8571017221798730e-01 0.0000000000000000e+00  9.2700620452037630e-01 5.3482379403196126e-02 0.0000000000000000e+00  7.9434413300856088e-01 -1.8982590928952950e-01 0.0000000000000000e+00  6.3267219036834754e-01 -5.4624935567008807e-02 0.0000000000000000e+00  6.7018158266501537e-02 -3.9840481254449174e-02 0.0000000000000000e+00  2.0016943141796381e-01 3.3195285300106903e-02 0.0000000000000000e+00  2.4890739399268663e-01 2.0159938476613785e-02 0.0000000000000000e+00  5.3056896189552083e-01 2.8224250575961292e-02 0.0000000000000000e+00  7.5530328330833019e-01 2.9786879172212850e-02 0.0000000000000000e+00  5.9713363143615394e-01 1.9034088650995715e-03 0.0000000000000000e+00  2.7789739913703748e-01 -5.0753868398292689e-03 0.0000000000000000e+00  8.7194966346013902e-01 -7.6490278409159429e-03 0.0000000000000000e+00  5.9974710110851248e-01 -4.5514970984561288e-02 0.0000000000000000e+00  2.3312363791540772e-01 3.2602113976769364e-03 0.0000000000000000e+00  1.7942175727569368e-01 -2.4248240631344509e-02 0.0000000000000000e+00  5.7729266268274149e-01 -1.8380305208379724e-03 0.0000000000000000e+00  2.9864292420117283e-01 1.1535705897745168e-02 0.0000000000000000e+00  7.1728924062380384e-01 3.1014519556491773e-03 0.0000000000000000e+00  6.4882818427841993e-01 2.7805750209540054e-03 0.0000000000000000e+00  5.5674779212878567e-01 8.2093241009191451e-03 0.0000000000000000e+00  2.3900000972927660e-01 7.8062543405513956e-03 0.0000000000000000e+00  7.5308431792582819e-01 1.2319291337390653e-02 0.0000000000000000e+00  7.1586293289712211e-01 2.1923270386314475e-02 0.0000000000000000e+00  4.5642418373283911e-01 -6.3725645694720584e-02 0.0000000000000000e+00  6.0771651897723855e-01 7.5744374195275063e-02 0.0000000000000000e+00  9.4231842077596661e-01 -4.4872174728055589e-02 0.0000000000000000e+00  7.3849591198372433e-01 -1.1839973172686014e-03 0.0000000000000000e+00  7.2500264729207731e-01 -2.1518625696146455e-04 0.0000000000000000e+00  7.4945158978354198e-01 9.3202467015833144e-06 0.0000000000000000e+00  6.3691627111376947e-01 3.0790905263636613e-02 0.0000000000000000e+00  4.6692803745871159e-01 -1.9217310152782185e-01 0.0000000000000000e+00  6.4268500989860955e-01 2.2341449285064163e-01 0.0000000000000000e+00  2.4969624483139596e-01 7.3115210538084662e-04 0.0000000000000000e+00  5.7672848223957607e-01 -4.2055888351941621e-02 0.0000000000000000e+00  5.5622474452150183e-01 1.5899932866632181e-02 0.0000000000000000e+00  5.7612287300485154e-01 -1.8605686846570288e-01 0.0000000000000000e+00  5.8318627805736833e-01 1.8300899158025169e-01 0.0000000000000000e+00  7.3210276560171028e-01 5.7909430443376835e-05 0.0000000000000000e+00  7.6850094375106126e-01 1.7681504623467687e-03 0.0000000000000000e+00  7.2389640832457991e-01 7.7323616928718239e-02 0.0000000000000000e+00  7.1483700854487797e-01 -8.3042443545324585e-02 0.0000000000000000e+00  2.8193897976215793e-01 -1.1568523515587265e-03 0.0000000000000000e+00  4.9332362224790632e-01 3.5783879808508001e-02 0.0000000000000000e+00  4.9332508753166493e-01 -3.5817039476060700e-02 0.0000000000000000e+00  2.6558370708405132e-01 -1.3622844076147531e-01 0.0000000000000000e+00  5.7805548726554612e-01 4.7931030349893941e-03 0.0000000000000000e+00  5.0321200113329678e-01 1.2099295752843375e-01 0.0000000000000000e+00  8.3795986323489458e-01 -2.8766834349179130e-03 0.0000000000000000e+00  5.6414880328971551e-01 4.5416454258690939e-04 0.0000000000000000e+00  5.8277246802042570e-01 -5.0872331139239146e-04 0.0000000000000000e+00  5.6050153148026827e-01 8.5767782785361318e-03 0.0000000000000000e+00  1.8420270339841779e-01 8.9416156758500662e-02 0.0000000000000000e+00  4.6900385744975565e-01 -1.2087815571391580e-01 0.0000000000000000e+00  6.0010988344133431e-01 -1.1204158458339388e-02 0.0000000000000000e+00  6.0863526381475164e-01 -2.6395305029671091e-03 0.0000000000000000e+00  2.5075867772657123e-01 -5.7983418008094288e-04 0.0000000000000000e+00  2.3391899115865969e-01 -5.0546685541653855e-03 0.0000000000000000e+00  7.9117687004247739e-01 -4.1463527045853189e-0