<?xml version="1.0"?>
<VTKFile type="UnstructuredGrid"  version="0.1"  >
<UnstructuredGrid>
<Piece  NumberOfPoints="622" NumberOfCells="1116">
<Points>
<DataArray  type="Float64"  NumberOfComponents="3"  format="ascii">-6 -2 0  -6 2 0  6 2 0  6 -2 0  -2.8 0 0  -1.2 0 0  -5.500000000001853 -2 0  -5.000000000003705 -2 0  -4.500000000005556 -2 0  -4.000000000007409 -2 0  -3.50000000000926 -2 0  -3.000000000011112 -2 0  -2.500000000012963 -2 0  -2.000000000014814 -2 0  -1.500000000016665 -2 0  -1.000000000018516 -2 0  -0.5000000000203677 -2 0  -2.204547655537681e-11 -2 0  0.4999999999796305 -2 0  0.9999999999814779 -2 0  1.499999999983327 -2 0  1.999999999985175 -2 0  2.499999999987029 -2 0  2.999999999988882 -2 0  3.499999999990735 -2 0  3.999999999992589 -2 0  4.49999999999444 -2 0  4.999999999996293 -2 0  5.499999999998147 -2 0  6 -1.500000000001387 0  6 -1.000000000002774 0  6 -0.5000000000041616 0  6 -5.505595979116151e-12 0  6 0.4999999999958384 0  6 0.9999999999972258 0  6 1.499999999998613 0  5.500000000001853 2 0  5.000000000003705 2 0  4.500000000005556 2 0  4.000000000007409 2 0  3.50000000000926 2 0  3.000000000011112 2 0  2.500000000012963 2 0  2.000000000014814 2 0  1.500000000016665 2 0  1.000000000018516 2 0  0.5000000000203677 2 0  2.204547655537681e-11 2 0  -0.4999999999796305 2 0  -0.9999999999814779 2 0  -1.499999999983327 2 0  -1.999999999985175 2 0  -2.499999999987029 2 0  -2.999999999988882 2 0  -3.499999999990735 2 0  -3.999999999992589 2 0  -4.49999999999444 2 0  -4.999999999996293 2 0  -5.499999999998147 2 0  -6 1.500000000001387 0  -6 1.000000000002774 0  -6 0.5000000000041616 0  -6 5.505595979116151e-12 0  -6 -0.4999999999958384 0  -6 -0.9999999999972258 0  -6 -1.499999999998613 0  -2.796147781337886 -0.07841371226233997 0  -2.784628224322852 -0.1560722576115546 0  -2.765552268586196 -0.2322277418021561 0  -2.739103626009626 -0.30614674589063 0  -2.705537011479457 -0.3771173894593519 0  -2.665175689843037 -0.4444561864141836 0  -2.618408362691456 -0.5075146273293722 0  -2.565685424950688 -0.5656854249477874 0  -2.507514627332613 -0.6184083626887972 0  -2.444456186417533 -0.6651756898407991 0  -2.377117389462776 -0.7055370114776264 0  -2.306146745894456 -0.7391036260080417 0  -2.232227741806235 -0.7655522685849585 0  -2.15607225761588 -0.784628224321992 0  -2.078413712266957 -0.7961477813374315 0  -2.000000000003407 -0.7999999999999998 0  -1.921586287739523 -0.7961477813380696 0  -1.843927742389945 -0.7846282243231506 0  -1.767772258198879 -0.7655522685865098 0  -1.693853254109962 -0.7391036260098718 0  -1.622882610540873 -0.7055370114795768 0  -1.555543813585629 -0.6651756898429115 0  -1.49248537267008 -0.6184083626910072 0  -1.434314575051535 -0.5656854249500112 0  -1.381591637310384 -0.5075146273316149 0  -1.334824310158267 -0.4444561864161359 0  -1.294462988521423 -0.3771173894609975 0  -1.260896373990956 -0.3061467458920351 0  -1.234447731414138 -0.2322277418032578 0  -1.215371775677287 -0.156072257612254 0  -1.203852218662147 -0.07841371226267954 0  -1.203852218662115 0.07841371226235888 0  -1.215371775677132 0.156072257611478 0  -1.234447731413795 0.232227741802127 0  -1.260896373990353 0.3061467458905811 0  -1.294462988520456 0.3771173894591898 0  -1.334824310156812 0.444456186413959 0  -1.381591637308413 0.5075146273292139 0  -1.434314575049147 0.5656854249476236 0  -1.492485372667197 0.6184083626886415 0  -1.555543813582104 0.6651756898405565 0  -1.62288261053673 0.7055370114773629 0  -1.693853254105125 0.7391036260078683 0  -1.767772258193396 0.7655522685848468 0  -1.84392774238373 0.7846282243219146 0  -1.921586287732977 0.7961477813374253 0  -1.999999999996558 0.8 0  -2.078413712260516 0.7961477813380661 0  -2.156072257610207 0.7846282243231205 0  -2.232227741801178 0.7655522685864928 0  -2.306146745890059 0.7391036260098632 0  -2.377117389459098 0.7055370114795929 0  -2.444456186414405 0.6651756898428894 0  -2.50751462732998 0.6184083626909587 0  -2.565685424948549 0.5656854249499272 0  -2.61840836268981 0.5075146273313792 0  -2.665175689841831 0.4444561864159886 0  -2.705537011478692 0.3771173894607835 0  -2.739103626009108 0.3061467458918818 0  -2.76555226858589 0.2322277418031643 0  -2.784628224322724 0.1560722576122001 0  -2.796147781337853 0.07841371226267957 0  0.6720367661319522 0.1312687487860887 0  -4.389489086394485 0.3544472233398538 0  -3.816221554046232 -0.6097988664512611 0  -3.552726516474419 0.9342959806851625 0  -0.2536610443052337 0.8162373554653355 0  -0.1843238977799138 -0.6649951410982842 0  -3.613359951620445 0.1086570650978273 0  -3.146954163409593 -1.074378179335012 0  -0.4255266515582625 0.07734891565364931 0  -0.9413731612925856 1.168014724254929 0  -2.947764053183577 1.200029094390044 0  -0.8319852757411681 -1.058626838707328 0  2.675418990747819 -1.137325591670363e-12 0  -2.602010642259726 -1.287560129290477 0  -2.334401622060699 1.335006108940604 0  -1.524718496628401 1.32890816230333 0  -1.369813829148039 -1.26145150481762 0  -3.294065651892671 -0.4630240940010318 0  -2.072749204569071 -1.388981302138359 0  -0.7546165313921411 0.5601792161340381 0  -3.224879719581335 0.4382689715877901 0  -0.7073137361349826 -0.4625305410752652 0  4.326242945813966 0.3262429458150917 0  -3.187880061217201 0.07437712177460168 0  -2.94792024259867 0.7030255657465158 0  -2.678809277907896 0.9152683582887104 0  -4.911626141576894 -0.5700186648601188 0  -2.980647654587299 -0.5685006168686053 0  -2.769438919323564 -0.8202775213660614 0  -1.936950121013948 1.220669938589229 0  -0.8971643766260747 0.2762459428874499 0  -0.8760878018253068 -0.06836412137772707 0  -1.086827485441145 0.6772548942594016 0  -1.31355927028917 0.8808768148414213 0  -1.034266382739347 -0.5912381576649568 0  -1.241594139118264 -0.836771920085274 0  1.667161185638911 -0.6367996576268693 0  1.778189842800902 0.7191719841256095 0  -3.065106827511819 -0.266795371500425 0  3.714311277362231 -0.7275465302492842 0  -1.728329421201519 -1.09954751473283 0  4.870629493137888 -0.7325040699186681 0  -3.024707894719303 0.2567561910603656 0  -4.375540207252226 1.228935704312058 0  -2.272077148001781 -1.086192861256262 0  3.351408248797803 0.9175227128129597 0  -5.141847419540732 0.8091901960109126 0  0.5769368286199241 1.111816231125821 0  0.7411482978492124 -1.079569101289617 0  -1.074013749991219 0.430231207546053 0  -1.04664573441257 -0.3358382377487088 0  -2.439195336951085 0.9224778883059374 0  -2.902607676587358 0.4360473765597399 0  -1.629450174302152 1.035617385691805 0  -2.146859933125513 1.032375363966426 0  2.587625196444542 -0.9999926061845814 0  -2.529286802957126 -0.8830616815739111 0  -1.493798157676768 -0.8794705728517196 0  -1.932158132383022 -1.026681566564148 0  -4.09956359341904 -0.1372485582942864 0  5.055802064425553 1.050933510837308 0  -4.413659685984891 -1.207626391697488 0  -4.961411026474009 0.1201902955685026 0  -3.771151641156835 -1.303594976371997 0  -3.001321503506133 -0.04919177107285733 0  -3.881733605683001 0.5124517634812003 0  -0.1971627317996802 -1.336445372382849 0  -2.742825060181767 0.6732573903735507 0  2.520439429199979 1.129372838786189 0  -1.026326428668429 0.1384273198437734 0  -2.779290004861729 -0.5844691722665721 0  -2.895095740820851 -0.4261289730972082 0  -1.275682076193407 0.6630703172777138 0  0.1045291701958869 0.3433373435296472 0  5.175560481258801 0.0608563229178163 0  -1.211574424201636 -0.5847362589868093 0  -1.85847006217035 1.007917631940711 0  4.152535916385823 1.131901130662082 0  -1.04878257200685 -0.1253529988863012 0  1.432836501626023 0.05634449574318775 0  3.560672936003603 0.01188897172456759 0  -3.351823698389408 -0.1821329582635926 0  -5.145153363200735 -1.259166339382508 0  0.03473693330309885 -0.1724947236036572 0  -4.377830921337186 -0.6172564090242229 0  -0.3943750728122595 1.410897156959435 0  -1.661073679471639 -0.9342065000197183 0  -1.49086536677686 0.8331714487926741 0  -2.584486130952032 0.7871482690034864 0  4.270535884593893 -1.259607924744415 0  -1.757417028085795 -1.505182186951191 0  -3.430586920998477 1.425579221231371 0  -2.917598827418652 -0.2298465409534677 0  -2.328978331116049 -0.9300959620317677 0  -2.148543000691344 -0.9751580214451921 0  1.002654111360038 -0.4521702885594788 0  -4.628651824080903 -0.1127998710567241 0  -2.948904386702482 0.1555943115410545 0  0.4165242577134774 -0.5629432649478633 0  -3.698137692471105 -0.3173027948676715 0  -3.491400684461791 -0.7926319721650269 0  -0.3844454817728994 0.4680628696134375 0  -3.207830713508533 0.9778749990559993 0  3.229909751065535 -1.326302454776001 0  5.330007715336748 -1.312905173261894 0  -2.649214054100534 -0.713314536278899 0  1.342022964818772 -1.328315248672686 0  -2.556460939068198 1.202372762828344 0  -0.3497819755044588 -0.3080427614060888 0  -4.928440909495523 1.387622767511967 0  1.309170811945155 1.337467055109531 0  -1.352031940181449 -0.7151198948590243 0  -0.6132855723904642 0.9519045895123004 0  4.266838388406324 -0.3707357390867402 0  -3.834389788310238 1.371594798941152 0  -1.187890214580146 0.4851427123079557 0  -1.109118888029193 0.3185947354467283 0  0.1837819401738013 1.234799661476361 0  1.108165254659559 0.6237223548284967 0  -0.5266600156584522 -0.8113991260886402 0  -4.643822083543982 0.7834094684931707 0  -1.146235204666366 -0.4027330721405781 0  2.049029845992713 -0.2664662499985428 0  2.002665761665898 -1.328912351029848 0  -1.678783505586872 0.8978832065736417 0  -2.049499525232052 0.9483890761590005 0  -2.229972236535132 0.9181006323151361 0  -3.033763529945482 -1.54240494280775 0  -3.562344364746847 0.5622550957224539 0  -5.524396842903405 -0.2709714867672603 0  -0.9710982764034376 -1.549038578476423 0  3.058819320130555 -0.5375106252795963 0  -4.170365230099585 0.7342553699229977 0  -1.045878746461381 -8.187420622554697e-05 0  -1.864822945411764 -0.9219031104673102 0  -0.6251005091687033 -0.2120650512195049 0  2.317562622406059 0.4886417799113238 0  -0.6674371191466613 0.1483993095055008 0  -2.705757882979874 1.609712312948224 0  
[...]
<PointData  Vectors="f_22"> 
<DataArray  type="Float64"  Name="f_22"  NumberOfComponents="3" format="ascii">0.0000000000000000e+00 0.0000000000000000e+00 0.0000000000000000e+00  0.0000000000000000e+00 0.0000000000000000e+00 0.0000000000000000e+00  0.0000000000000000e+00 0.0000000000000000e+00 0.0000000000000000e+00  0.0000000000000000e+00 0.0000000000000000e+00 0.0000000000000000e+00  9.9999998190777883e-01 0.0000000000000000e+00 0.0000000000000000e+00  9.9999998190777883e-01 0.0000000000000000e+00 0.0000000000000000e+00  0.0000000000000000e+00 0.0000000000000000e+00 0.0000000000000000e+00  0.0000000000000000e+00 0.0000000000000000e+00 0.0000000000000000e+00  0.0000000000000000e+00 0.0000000000000000e+00 0.0000000000000000e+00  0.0000000000000000e+00 0.0000000000000000e+00 0.0000000000000000e+00  0.0000000000000000e+00 0.0000000000000000e+00 0.0000000000000000e+00  0.0000000000000000e+00 0.0000000000000000e+00 0.0000000000000000e+00  0.0000000000000000e+00 0.0000000000000000e+00 0.0000000000000000e+00  0.0000000000000000e+00 0.0000000000000000e+00 0.0000000000000000e+00  0.0000000000000000e+00 0.0000000000000000e+00 0.0000000000000000e+00  0.0000000000000000e+00 0.0000000000000000e+00 0.0000000000000000e+00  0.0000000000000000e+00 0.0000000000000000e+00 0.0000000000000000e+00  0.0000000000000000e+00 0.0000000000000000e+00 0.0000000000000000e+00  0.0000000000000000e+00 0.0000000000000000e+00 0.0000000000000000e+00  0.0000000000000000e+00 0.0000000000000000e+00 0.0000000000000000e+00  0.0000000000000000e+00 0.0000000000000000e+00 0.0000000000000000e+00  0.0000000000000000e+00 0.0000000000000000e+00 0.0000000000000000e+00  0.0000000000000000e+00 0.0000000000000000e+00 0.0000000000000000e+00  0.0000000000000000e+00 0.0000000000000000e+00 0.0000000000000000e+00  0.0000000000000000e+00 0.0000000000000000e+00 0.0000000000000000e+00  0.0000000000000000e+00 0.0000000000000000e+00 0.0000000000000000e+00  0.0000000000000000e+00 0.0000000000000000e+00 0.0000000000000000e+00  0.0000000000000000e+00 0.0000000000000000e+00 0.0000000000000000e+00  0.0000000000000000e+00 0.0000000000000000e+00 0.0000000000000000e+00  1.1822053921165439e-01 1.6572942711915555e-06 0.0000000000000000e+00  1.2150605921400214e-01 1.4844880774161891e-05 0.0000000000000000e+00  1.2182898545985810e-01 -2.3240919581583957e-05 0.0000000000000000e+00  1.2183511146895888e-01 -3.5860613655840027e-06 0.0000000000000000e+00  1.2180381552347855e-01 1.9275078545662569e-05 0.0000000000000000e+00  1.2169871284372445e-01 -6.7938536776509430e-06 0.0000000000000000e+00  1.1608053605473075e-01 1.3627962566471204e-04 0.0000000000000000e+00  0.0000000000000000e+00 0.0000000000000000e+00 0.0000000000000000e+00  0.0000000000000000e+00 0.0000000000000000e+00 0.0000000000000000e+00  0.0000000000000000e+00 0.0000000000000000e+00 0.0000000000000000e+00  0.0000000000000000e+00 0.0000000000000000e+00 0.0000000000000000e+00  0.0000000000000000e+00 0.0000000000000000e+00 0.0000000000000000e+00  0.0000000000000000e+00 0.0000000000000000e+00 0.0000000000000000e+00  0.0000000000000000e+00 0.0000000000000000e+00 0.0000000000000000e+00  0.0000000000000000e+00 0.0000000000000000e+00 0.0000000000000000e+00  0.0000000000000000e+00 0.0000000000000000e+00 0.0000000000000000e+00  0.0000000000000000e+00 0.0000000000000000e+00 0.0000000000000000e+00  0.0000000000000000e+00 0.0000000000000000e+00 0.0000000000000000e+00  0.0000000000000000e+00 0.0000000000000000e+00 0.0000000000000000e+00  0.0000000000000000e+00 0.0000000000000000e+00 0.0000000000000000e+00  0.0000000000000000e+00 0.0000000000000000e+00 0.0000000000000000e+00  0.0000000000000000e+00 0.0000000000000000e+00 0.0000000000000000e+00  0.0000000000000000e+00 0.0000000000000000e+00 0.0000000000000000e+00  0.0000000000000000e+00 0.0000000000000000e+00 0.0000000000000000e+00  0.0000000000000000e+00 0.0000000000000000e+00 0.0000000000000000e+00  0.0000000000000000e+00 0.0000000000000000e+00 0.0000000000000000e+00  0.0000000000000000e+00 0.0000000000000000e+00 0.0000000000000000e+00  0.0000000000000000e+00 0.0000000000000000e+00 0.0000000000000000e+00  0.0000000000000000e+00 0.0000000000000000e+00 0.0000000000000000e+00  0.0000000000000000e+00 0.0000000000000000e+00 0.0000000000000000e+00  1.1527793342608425e-01 -7.8640696114826495e-04 0.0000000000000000e+00  1.2090807631544656e-01 -1.1882308699730155e-03 0.0000000000000000e+00  1.2540421790014500e-01 -1.2292820058668317e-03 0.0000000000000000e+00  1.2770352127177489e-01 3.6809086369038441e-04 0.0000000000000000e+00  1.2626091156798502e-01 7.4923027866925296e-04 0.0000000000000000e+00  1.2168510332486017e-01 1.1916120150749887e-03 0.0000000000000000e+00  1.1468766720155101e-01 8.3482891862935577e-04 0.0000000000000000e+00  9.9999998190777883e-01 0.0000000000000000e+00 0.0000000000000000e+00  9.9999998190777883e-01 0.0000000000000000e+00 0.0000000000000000e+00  9.9999998190777883e-01 0.0000000000000000e+00 0.0000000000000000e+00  9.9999998190777883e-01 0.0000000000000000e+00 0.0000000000000000e+00  9.9999998190777883e-01 0.0000000000000000e+00 0.0000000000000000e+00  9.9999998190777883e-01 0.0000000000000000e+00 0.0000000000000000e+00  9.9999998190777883e-01 0.0000000000000000e+00 0.0000000000000000e+00  9.9999998190777883e-01 0.0000000000000000e+00 0.0000000000000000e+00  9.9999998190777883e-01 0.0000000000000000e+00 0.0000000000000000e+00  9.9999998190777883e-01 0.0000000000000000e+00 0.0000000000000000e+00  9.9999998190777883e-01 0.0000000000000000e+00 0.0000000000000000e+00  9.9999998190777883e-01 0.0000000000000000e+00 0.0000000000000000e+00  9.9999998190777883e-01 0.0000000000000000e+00 0.0000000000000000e+00  9.9999998190777883e-01 0.0000000000000000e+00 0.0000000000000000e+00  9.9999998190777883e-01 0.0000000000000000e+00 0.0000000000000000e+00  9.9999998190777883e-01 0.0000000000000000e+00 0.0000000000000000e+00  9.9999998190777883e-01 0.0000000000000000e+00 0.0000000000000000e+00  9.9999998190777883e-01 0.0000000000000000e+00 0.0000000000000000e+00  9.9999998190777883e-01 0.0000000000000000e+00 0.0000000000000000e+00  9.9999998190777883e-01 0.0000000000000000e+00 0.0000000000000000e+00  9.9999998190777883e-01 0.0000000000000000e+00 0.0000000000000000e+00  9.9999998190777883e-01 0.0000000000000000e+00 0.0000000000000000e+00  9.9999998190777883e-01 0.0000000000000000e+00 0.0000000000000000e+00  9.9999998190777883e-01 0.0000000000000000e+00 0.0000000000000000e+00  9.9999998190777883e-01 0.0000000000000000e+00 0.0000000000000000e+00  9.9999998190777883e-01 0.0000000000000000e+00 0.0000000000000000e+00  9.9999998190777883e-01 0.0000000000000000e+00 0.0000000000000000e+00  9.9999998190777883e-01 0.0000000000000000e+00 0.0000000000000000e+00  9.9999998190777883e-01 0.0000000000000000e+00 0.0000000000000000e+00  9.9999998190777883e-01 0.0000000000000000e+00 0.0000000000000000e+00  9.9999998190777883e-01 0.0000000000000000e+00 0.0000000000000000e+00  9.9999998190777883e-01 0.0000000000000000e+00 0.0000000000000000e+00  9.9999998190777883e-01 0.0000000000000000e+00 0.0000000000000000e+00  9.9999998190777883e-01 0.0000000000000000e+00 0.0000000000000000e+00  9.9999998190777883e-01 0.0000000000000000e+00 0.0000000000000000e+00  9.9999998190777883e-01 0.0000000000000000e+00 0.0000000000000000e+00  9.9999998190777883e-01 0.0000000000000000e+00 0.0000000000000000e+00  9.9999998190777883e-01 0.0000000000000000e+00 0.0000000000000000e+00  9.9999998190777883e-01 0.0000000000000000e+00 0.0000000000000000e+00  9.9999998190777883e-01 0.0000000000000000e+00 0.0000000000000000e+00  9.9999998190777883e-01 0.0000000000000000e+00 0.0000000000000000e+00  9.9999998190777883e-01 0.0000000000000000e+00 0.0000000000000000e+00  9.9999998190777883e-01 0.0000000000000000e+00 0.0000000000000000e+00  9.9999998190777883e-01 0.0000000000000000e+00 0.0000000000000000e+00  9.9999998190777883e-01 0.0000000000000000e+00 0.0000000000000000e+00  9.9999998190777883e-01 0.0000000000000000e+00 0.0000000000000000e+00  9.9999998190777883e-01 0.0000000000000000e+00 0.0000000000000000e+00  9.9999998190777883e-01 0.0000000000000000e+00 0.0000000000000000e+00  9.9999998190777883e-01 0.0000000000000000e+00 0.0000000000000000e+00  9.9999998190777883e-01 0.0000000000000000e+00 0.0000000000000000e+00  9.9999998190777883e-01 0.0000000000000000e+00 0.0000000000000000e+00  9.9999998190777883e-01 0.0000000000000000e+00 0.0000000000000000e+00  9.9999998190777883e-01 0.0000000000000000e+00 0.0000000000000000e+00  9.9999998190777883e-01 0.0000000000000000e+00 0.0000000000000000e+00  9.9999998190777883e-01 0.0000000000000000e+00 0.0000000000000000e+00  9.9999998190777883e-01 0.0000000000000000e+00 0.0000000000000000e+00  9.9999998190777883e-01 0.0000000000000000e+00 0.0000000000000000e+00  9.9999998190777883e-01 0.0000000000000000e+00 0.0000000000000000e+00  9.9999998190777883e-01 0.0000000000000000e+00 0.0000000000000000e+00  9.9999998190777883e-01 0.0000000000000000e+00 0.0000000000000000e+00  9.9999998190777883e-01 0.0000000000000000e+00 0.0000000000000000e+00  9.9999998190777883e-01 0.0000000000000000e+00 0.0000000000000000e+00  1.6655261919505554e-01 7.8113331839018028e-03 0.0000000000000000e+00  1.5407745068731080e-01 -2.1456873785739437e-02 0.0000000000000000e+00  1.6986069473904550e-01 9.0980279349615070e-02 0.0000000000000000e+00  1.0561766507419870e-01 -1.4793770937037398e-01 0.0000000000000000e+00  1.2852810983773127e-01 1.9739757917916326e-01 0.0000000000000000e+00  1.7550858398936328e-01 -1.6974177579069533e-01 0.0000000000000000e+00  2.7097218383120719e-01 -3.0515572062479308e-02 0.0000000000000000e+00  2.7930285118468860e-03 2.3948979246042473e-01 0.0000000000000000e+00  4.3209255712723044e-01 5.1065061452224697e-02 0.0000000000000000e+00  -2.1080598134147302e-01 3.1516497469275839e-01 0.0000000000000000e+00  -9.9326867006416616e-02 -2.5752557395978931e-01 0.0000000000000000e+00  -1.0230327608675677e-01 -3.6040705042301668e-01 0.0000000000000000e+00  1.2325901358973790e-01 1.1700198814787005e-04 0.0000000000000000e+00  -2.9112039383073834e-01 2.7220244358073237e-01 0.0000000000000000e+00  -4.4268111433362090e-01 -2.2184438524182593e-01 0.0000000000000000e+00  -5.5171007110196313e-01 1.6311713018123261e-01 0.0000000000000000e+00  -4.8769115112618860e-01 -2.4753156080756208e-01 0.0000000000000000e+00  2.8367898936357006e-01 2.0937257316360652e-01 0.0000000000000000e+00  -5.4487323764751761e-01 1.1604156839389418e-01 0.0000000000000000e+00  2.8594625707624582e-01 5.0139310936796722e-01 0.0000000000000000e+00  3.1262609327968216e-01 -2.3873083126373187e-01 0.0000000000000000e+00  3.8623359980702143e-01 -4.3695498952337819e-01 0.0000000000000000e+00  1.2205871618115244e-01 1.1555446348704015e-05 0.0000000000000000e+00  4.7058640067320440e-01 -5.5760235868986124e-02 0.0000000000000000e+00  1.4082818255601384e-01 -4.4545548853932332e-01 0.0000000000000000e+00  -1.5848858572090060e-01 -5.0960089032684508e-01 0.0000000000000000e+00  1.3164934085459767e-01 1.2543734622247534e-02 0.0000000000000000e+00  2.6804160285337503e-01 4.3120911097118031e-01 0.0000000000000000e+00  -3.1473825725990570e-02 5.3304310485134732e-01 0.0000000000000000e+00  -6.4973064660460933e-01 -9.3111776689146580e-02 0.0000000000000000e+00  8.0184052457565447e-01 2.0634568809435536e-01 0.0000000000000000e+00  8.7078478702725404e-01 -4.8960607135178788e-02 0.0000000000000000e+00  2.6211180966066067e-01 5.9201937129305726e-01 0.0000000000000000e+00  -2.9344323713851217e-01 5.8365601293110603e-01 0.0000000000000000e+00  4.6934483890330903e-01 -4.8870026793127141e-01 0.0000000000000000e+00  -1.5889739297766045e-01 -6.2706552946048078e-01 0.0000000000000000e+00  1.2517188022165215e-01 -7.3030492249092577e-03 0.0000000000000000e+00  1.2458974809770525e-01 5.8575119038184490e-03 0.0000000000000000e+00  4.9087405864611805e-01 2.4870463027345222e-01 0.0000000000000000e+00  1.2205988745916756e-01 -3.2725380408245340e-04 0.0000000000000000e+00  -7.7713321682394720e-01 -9.3957419485781471e-02 0.0000000000000000e+00  1.2195699224178247e-01 -1.1406940727841650e-04 0.0000000000000000e+00  5.2706341078296515e-01 -2.6919538176933216e-01 0.0000000000000000e+00  1.0520820091688410e-01 -3.3605605165459899e-02 0.0000000000000000e+00  -5.5757471806631753e-01 3.6934143175974105e-01 0.0000000000000000e+00  1.2128536097951566e-01 2.6048275682153554e-04 0.0000000000000000e+00  1.2432731525517372e-01 -9.9049159348183966e-03 0.0000000000000000e+00  1.1066593859748150e-01 4.8137358618283117e-02 0.0000000000000000e+00  1.1323952584029845e-01 -3.4498971655839608e-02 0.0000000000000000e+00  8.2188017962412108e-01 2.1462626646600705e-01 0.0000000000000000e+00  8.7692467180362654e-01 -1.6431894750963488e-01 0.0000000000000000e+00  -3.8372546165174970e-01 -5.6436856851241624e-01 0.0000000000000000e+00  4.3202056148170842e-01 -4.6320766400697105e-01 0.0000000000000000e+00  -7.4941956679873534e-01 2.3512304991826999e-01 0.0000000000000000e+00  -6.8796762477042517e-01 -3.3238567175165062e-01 0.0000000000000000e+00  1.2163685728933812e-01 -1.6972708415702849e-03 0.0000000000000000e+00  -2.5461812877590301e-01 5.8403474930617882e-01 0.0000000000000000e+00  -1.5776753806213573e-01 -3.8403757962086987e-01 0.0000000000000000e+00  -7.9216827767890818e-01 1.0855714872073083e-01 0.0000000000000000e+00  1.8459294158910142e-01 1.5094610816701578e-02 0.0000000000000000e+00  1.2209602327300186e-01 1.7694734170548334e-05 0.0000000000000000e+00  1.0622138470901298e-01 3.3114356529874114e-02 0.0000000000000000e+00  1.3740705696149275e-01 -2.6953773182884669e-03 0.0000000000000000e+00  6.2673169558277689e-02 7.8397582464075938e-02 0.0000000000000000e+00  6.5590008320454440e-01 4.7797157226617940e-02 0.0000000000000000e+00  1.7919889930899591e-01 -7.1259298251733771e-02 0.0000000000000000e+00  1.4510397345095651e-02 -1.1735080676801493e-01 0.0000000000000000e+00  1.0420433466630484e-01 -6.3421136499724629e-01 0.0000000000000000e+00  1.2170437522144674e-01 2.1400731938971914e-03 0.0000000000000000e+00  9.4511795731471049e-01 6.3109967233921344e-02 0.0000000000000000e+00  2.3805227102456161e-01 6.2230442015340515e-01 0.0000000000000000e+00  4.5385677085968268e-01 4.5825482043479293e-01 0.0000000000000000e+00  6.4963429069059597e-01 2.7058840961442659e-01 0.0000000000000000e+00  2.1387027843653530e-01 6.7698087419404279e-02 0.0000000000000000e+00  1.2192818820115933e-01 -1.0276765205864950e-05 0.0000000000000000e+00  7.4880040181598173e-01 -2.3844633602411555e-01 0.0000000000000000e+00  -7.6819602229804196e-01 -9.4883037295669138e-03 0.0000000000000000e+00  1.2212438771965037e-01 3.8805104119643983e-05 0.0000000000000000e+00  9.5822442891383952e-01 -5.0837899642248781e-02 0.0000000000000000e+00  1.3396668169741671e-01 1.1188597996975363e-03 0.0000000000000000e+00  1.2230183432339641e-01 -6.8006609240647270e-05 0.0000000000000000e+00  3.5785563481166466e-01 8.8138499911300086e-02 0.0000000000000000e+00  1.1621064599871263e-01 9.1892209398814692e-03 0.0000000000000000e+00  2.4676379466706108e-01 -4.2248534904804826e-02 0.0000000000000000e+00  1.4252018149200768e-01 3.3674850523389775e-02 0.0000000000000000e+00  -3.9188972191113079e-02 1.2228759590536745e-01 0.0000000000000000e+00  -4.4431895083187251e-01 -2.3775947370448453e-01 0.0000000000000000e+00  1.3702388579469452e-01 2.9905255261443009e-01 0.0000000000000000e+00  -1.5940458639431912e-01 -6.7855554313219191e-01 0.0000000000000000e+00  1.2236206089062084e-01 -2.5865169576776626e-05 0.0000000000000000e+00  -5.2244372675350714e-01 -1.5536888831116572e-02 0.0000000000000000e+00  -8.8125727108729016e-03 -1.0185412854253396e-01 0.0000000000000000e+00  6.4896488281244358e-01 3.1968815283333191e-01 0.0000000000000000e+00  -5.1791418125717614e-01 5.3624712962868470e-01 0.0000000000000000e+00  -6.8970068972500842e-01 3.7367500380092000e-01 0.0000000000000000e+00  1.3902307451171009e-01 -1.7135365040828028e-02 0.0000000000000000e+00  1.4697591715584168e-01 5.0919275528826047e-03 0.0000000000000000e+00  6.7715346886016792e-01 -2.0441451053691304e-01 0.0000000000000000e+00  1.5899001724109896e-01 -5.2720596359503213e-02 0.0000000000000000e+00  2.3073840857228989e-01 7.0689314660888236e-02 0.0000000000000000e+00  1.4328721522736784e-01 1.6755904695678525e-01 0.0000000000000000e+00  2.8279907256397474e-01 2.1763244899633144e-01 0.0000000000000000e+00  4.9989369107176773e-02 -2.4768084903976564e-01 0.0000000000000000e+00  1.2240018775315407e-01 -4.2059025728384135e-04 0.0000000000000000e+00  1.2293454043948766e-01 8.0296432289109706e-05 0.0000000000000000e+00  -2.7441681722591246e-02 7.0114669141364594e-01 0.0000000000000000e+00  1.1507179316907774e-01 -1.1235483338665676e-02 0.0000000000000000e+00  -3.0598812848285017e-01 -3.3064733552410464e-01 0.0000000000000000e+00  3.3554334719595114e-01 -1.4872908665662482e-01 0.0000000000000000e+00  1.1179605624013467e-01 -1.1802173197294456e-02 0.0000000000000000e+00  1.1248645632420617e-01 1.2696308411282593e-02 0.0000000000000000e+00  5.8606838721197019e-01 -2.5960097065054194e-01 0.0000000000000000e+00  3.3678425742851764e-02 3.1822560737946737e-01 0.0000000000000000e+00  1.2200636911608577e-01 -1.1922582435758916e-04 0.0000000000000000e+00  6.1291404587622972e-02 -6.6065274393044132e-02 0.0000000000000000e+00  8.5864691163616769e-01 1.6823608919262745e-01 0.0000000000000000e+00  9.2415401193024571e-01 1.1596614561288002e-01 0.0000000000000000e+00  7.9833902586338906e-02 7.2103397415327494e-02 0.0000000000000000e+00  1.3361708757921334e-01 1.6790777270835961e-02 0.0000000000000000e+00  1.0897371517629104e-01 -3.0085660609524478e-01 0.0000000000000000e+00  1.2904964486970166e-01 -2.3140478816202511e-02 0.0000000000000000e+00  8.9683223649042298e-01 -1.4170721977759704e-01 0.0000000000000000e+00  1.2530787668050494e-01 -1.9531907359834999e-03 0.0000000000000000e+00  1.2005672180363644e-01 -3.8398402519386927e-03 0.0000000000000000e+00  -2.0891948807425517e-01 1.7695868678932183e-01 0.0000000000000000e+00  -6.8806444488227414e-01 -2.7357725741021238e-01 0.0000000000000000e+00  -6.2716866216913780e-01 -4.9366380871459992e-01 0.0000000000000000e+00  -1.2994061044081662e-01 1.0679007154814536e-01 0.0000000000000000e+00  2.0261983188920293e-01 -1.3588243097575309e-01 0.0000000000000000e+00  1.2829322039602467e-01 1.7037838444286953e-03 0.0000000000000000e+00  -2.3329241725485420e-01 -1.2838411828486027e-01 0.0000000000000000e+00  1.2245351527269349e-01 -6.2103452784478212e-04 0.0000000000000000e+00  1.3990268018697058e-01 -5.3701457804364250e-02 0.0000000000000000e+00  9.6641606385164125e-01 1.0322658803345929e-04 0.0000000000000000e+00  -4.4842296018437222e-01 2.7571828839115953e-02 0.0000000000000000e+00  5.3759696692126657e-01 -2.1441357461255481e-01 0.0000000000000000e+00  1.2386338325372044e-01 2.1266545652796750e-03 0.0000000000000000e+00  6.1261795935557073e-01 1.6595973033042180e-01 0.0000000000000000e+00  -2.5814997889979274e-01 -9.4058076040221025e-02 0.0000000000000000e+00  1.1305437833096682e-01 3.2917454153593034e-03 0.0000000000000000e+00  2.8560930319026356e-01 -6.2527587994463607e-01 0.0000000000000000e+00  5.9478579671679510e-01 -4.6227020835817040e-01 0.0000000000000000e+00  6.8734498780409126e-01 -2.9488749264623570e-01 0.0000000000000000e+00  1.5964048995100416e-01 2.7494902292794077e-01 0.0000000000000000e+00  1.1903134481096109e-01 -2.8041729305276026e-03 0.0000000000000000e+00  8.8410566031079746e-02 -9.2366435846810896e-02 0.0000000000000000e+00  -2.8199302849725144e-01 9.4222227332604880e-02 0.0000000000000000e+00  1.7445108872505893e-01 -2.7591174481901920e-01 0.0000000000000000e+00  -4.7085707293763995e-01 2.9648042800007500e-04 0.0000000000000000e+00  2.0576420980126020e-01 -1.9634296675828736e-02 0.0000000000000000e+00  5.1906631961678695e-01 2.6217543712914637e-01 0.0000000000000000e+00  4.9309995767057890e-01 3.8423412804345169e-01 0.0000000000000000e+00  5.3224835930998060e-01 4.5450991004857377e-01 0.0000000000000000e+00  -1.9212213291808021e-02 5.0467444625004587e-01 0.0000000000000000e+00  9.6615947877054253e-01 -6.2