<?xml version="1.0"?>
<VTKFile type="UnstructuredGrid"  version="0.1"  >
<UnstructuredGrid>
<Piece  NumberOfPoints="622" NumberOfCells="1116">
<Points>
<DataArray  type="Float64"  NumberOfComponents="3"  format="ascii">-6 -2 0  -6 2 0  6 2 0  6 -2 0  -2.8 0 0  -1.2 0 0  -5.500000000001853 -2 0  -5.000000000003705 -2 0  -4.500000000005556 -2 0  -4.000000000007409 -2 0  -3.50000000000926 -2 0  -3.000000000011112 -2 0  -2.500000000012963 -2 0  -2.000000000014814 -2 0  -1.500000000016665 -2 0  -1.000000000018516 -2 0  -0.5000000000203677 -2 0  -2.204547655537681e-11 -2 0  0.4999999999796305 -2 0  0.9999999999814779 -2 0  1.499999999983327 -2 0  1.999999999985175 -2 0  2.499999999987029 -2 0  2.999999999988882 -2 0  3.499999999990735 -2 0  3.999999999992589 -2 0  4.49999999999444 -2 0  4.999999999996293 -2 0  5.499999999998147 -2 0  6 -1.500000000001387 0  6 -1.000000000002774 0  6 -0.5000000000041616 0  6 -5.505595979116151e-12 0  6 0.4999999999958384 0  6 0.9999999999972258 0  6 1.499999999998613 0  5.500000000001853 2 0  5.000000000003705 2 0  4.500000000005556 2 0  4.000000000007409 2 0  3.50000000000926 2 0  3.000000000011112 2 0  2.500000000012963 2 0  2.000000000014814 2 0  1.500000000016665 2 0  1.000000000018516 2 0  0.5000000000203677 2 0  2.204547655537681e-11 2 0  -0.4999999999796305 2 0  -0.9999999999814779 2 0  -1.499999999983327 2 0  -1.999999999985175 2 0  -2.499999999987029 2 0  -2.999999999988882 2 0  -3.499999999990735 2 0  -3.999999999992589 2 0  -4.49999999999444 2 0  -4.999999999996293 2 0  -5.499999999998147 2 0  -6 1.500000000001387 0  -6 1.000000000002774 0  -6 0.5000000000041616 0  -6 5.505595979116151e-12 0  -6 -0.4999999999958384 0  -6 -0.9999999999972258 0  -6 -1.499999999998613 0  -2.796147781337886 -0.07841371226233997 0  -2.784628224322852 -0.1560722576115546 0  -2.765552268586196 -0.2322277418021561 0  -2.739103626009626 -0.30614674589063 0  -2.705537011479457 -0.3771173894593519 0  -2.665175689843037 -0.4444561864141836 0  -2.618408362691456 -0.5075146273293722 0  -2.565685424950688 -0.5656854249477874 0  -2.507514627332613 -0.6184083626887972 0  -2.444456186417533 -0.6651756898407991 0  -2.377117389462776 -0.7055370114776264 0  -2.306146745894456 -0.7391036260080417 0  -2.232227741806235 -0.7655522685849585 0  -2.15607225761588 -0.784628224321992 0  -2.078413712266957 -0.7961477813374315 0  -2.000000000003407 -0.7999999999999998 0  -1.921586287739523 -0.7961477813380696 0  -1.843927742389945 -0.7846282243231506 0  -1.767772258198879 -0.7655522685865098 0  -1.693853254109962 -0.7391036260098718 0  -1.622882610540873 -0.7055370114795768 0  -1.555543813585629 -0.6651756898429115 0  -1.49248537267008 -0.6184083626910072 0  -1.434314575051535 -0.5656854249500112 0  -1.381591637310384 -0.5075146273316149 0  -1.334824310158267 -0.4444561864161359 0  -1.294462988521423 -0.3771173894609975 0  -1.260896373990956 -0.3061467458920351 0  -1.234447731414138 -0.2322277418032578 0  -1.215371775677287 -0.156072257612254 0  -1.203852218662147 -0.07841371226267954 0  -1.203852218662115 0.07841371226235888 0  -1.215371775677132 0.156072257611478 0  -1.234447731413795 0.232227741802127 0  -1.260896373990353 0.3061467458905811 0  -1.294462988520456 0.3771173894591898 0  -1.334824310156812 0.444456186413959 0  -1.381591637308413 0.5075146273292139 0  -1.434314575049147 0.5656854249476236 0  -1.492485372667197 0.6184083626886415 0  -1.555543813582104 0.6651756898405565 0  -1.62288261053673 0.7055370114773629 0  -1.693853254105125 0.7391036260078683 0  -1.767772258193396 0.7655522685848468 0  -1.84392774238373 0.7846282243219146 0  -1.921586287732977 0.7961477813374253 0  -1.999999999996558 0.8 0  -2.078413712260516 0.7961477813380661 0  -2.156072257610207 0.7846282243231205 0  -2.232227741801178 0.7655522685864928 0  -2.306146745890059 0.7391036260098632 0  -2.377117389459098 0.7055370114795929 0  -2.444456186414405 0.6651756898428894 0  -2.50751462732998 0.6184083626909587 0  -2.565685424948549 0.5656854249499272 0  -2.61840836268981 0.5075146273313792 0  -2.665175689841831 0.4444561864159886 0  -2.705537011478692 0.3771173894607835 0  -2.739103626009108 0.3061467458918818 0  -2.76555226858589 0.2322277418031643 0  -2.784628224322724 0.1560722576122001 0  -2.796147781337853 0.07841371226267957 0  0.6720367661319522 0.1312687487860887 0  -4.389489086394485 0.3544472233398538 0  -3.816221554046232 -0.6097988664512611 0  -3.552726516474419 0.9342959806851625 0  -0.2536610443052337 0.8162373554653355 0  -0.1843238977799138 -0.6649951410982842 0  -3.613359951620445 0.1086570650978273 0  -3.146954163409593 -1.074378179335012 0  -0.4255266515582625 0.07734891565364931 0  -0.9413731612925856 1.168014724254929 0  -2.947764053183577 1.200029094390044 0  -0.8319852757411681 -1.058626838707328 0  2.675418990747819 -1.137325591670363e-12 0  -2.602010642259726 -1.287560129290477 0  -2.334401622060699 1.335006108940604 0  -1.524718496628401 1.32890816230333 0  -1.369813829148039 -1.26145150481762 0  -3.294065651892671 -0.4630240940010318 0  -2.072749204569071 -1.388981302138359 0  -0.7546165313921411 0.5601792161340381 0  -3.224879719581335 0.4382689715877901 0  -0.7073137361349826 -0.4625305410752652 0  4.326242945813966 0.3262429458150917 0  -3.187880061217201 0.07437712177460168 0  -2.94792024259867 0.7030255657465158 0  -2.678809277907896 0.9152683582887104 0  -4.911626141576894 -0.5700186648601188 0  -2.980647654587299 -0.5685006168686053 0  -2.769438919323564 -0.8202775213660614 0  -1.936950121013948 1.220669938589229 0  -0.8971643766260747 0.2762459428874499 0  -0.8760878018253068 -0.06836412137772707 0  -1.086827485441145 0.6772548942594016 0  -1.31355927028917 0.8808768148414213 0  -1.034266382739347 -0.5912381576649568 0  -1.241594139118264 -0.836771920085274 0  1.667161185638911 -0.6367996576268693 0  1.778189842800902 0.7191719841256095 0  -3.065106827511819 -0.266795371500425 0  3.714311277362231 -0.7275465302492842 0  -1.728329421201519 -1.09954751473283 0  4.870629493137888 -0.7325040699186681 0  -3.024707894719303 0.2567561910603656 0  -4.375540207252226 1.228935704312058 0  -2.272077148001781 -1.086192861256262 0  3.351408248797803 0.9175227128129597 0  -5.141847419540732 0.8091901960109126 0  0.5769368286199241 1.111816231125821 0  0.7411482978492124 -1.079569101289617 0  -1.074013749991219 0.430231207546053 0  -1.04664573441257 -0.3358382377487088 0  -2.439195336951085 0.9224778883059374 0  -2.902607676587358 0.4360473765597399 0  -1.629450174302152 1.035617385691805 0  -2.146859933125513 1.032375363966426 0  2.587625196444542 -0.9999926061845814 0  -2.529286802957126 -0.8830616815739111 0  -1.493798157676768 -0.8794705728517196 0  -1.932158132383022 -1.026681566564148 0  -4.09956359341904 -0.1372485582942864 0  5.055802064425553 1.050933510837308 0  -4.413659685984891 -1.207626391697488 0  -4.961411026474009 0.1201902955685026 0  -3.771151641156835 -1.303594976371997 0  -3.001321503506133 -0.04919177107285733 0  -3.881733605683001 0.5124517634812003 0  -0.1971627317996802 -1.336445372382849 0  -2.742825060181767 0.6732573903735507 0  2.520439429199979 1.129372838786189 0  -1.026326428668429 0.1384273198437734 0  -2.779290004861729 -0.5844691722665721 0  -2.895095740820851 -0.4261289730972082 0  -1.275682076193407 0.6630703172777138 0  0.1045291701958869 0.3433373435296472 0  5.175560481258801 0.0608563229178163 0  -1.211574424201636 -0.5847362589868093 0  -1.85847006217035 1.007917631940711 0  4.152535916385823 1.131901130662082 0  -1.04878257200685 -0.1253529988863012 0  1.432836501626023 0.05634449574318775 0  3.560672936003603 0.01188897172456759 0  -3.351823698389408 -0.1821329582635926 0  -5.145153363200735 -1.259166339382508 0  0.03473693330309885 -0.1724947236036572 0  -4.377830921337186 -0.6172564090242229 0  -0.3943750728122595 1.410897156959435 0  -1.661073679471639 -0.9342065000197183 0  -1.49086536677686 0.8331714487926741 0  -2.584486130952032 0.7871482690034864 0  4.270535884593893 -1.259607924744415 0  -1.757417028085795 -1.505182186951191 0  -3.430586920998477 1.425579221231371 0  -2.917598827418652 -0.2298465409534677 0  -2.328978331116049 -0.9300959620317677 0  -2.148543000691344 -0.9751580214451921 0  1.002654111360038 -0.4521702885594788 0  -4.628651824080903 -0.1127998710567241 0  -2.948904386702482 0.1555943115410545 0  0.4165242577134774 -0.5629432649478633 0  -3.698137692471105 -0.3173027948676715 0  -3.491400684461791 -0.7926319721650269 0  -0.3844454817728994 0.4680628696134375 0  -3.207830713508533 0.9778749990559993 0  3.229909751065535 -1.326302454776001 0  5.330007715336748 -1.312905173261894 0  -2.649214054100534 -0.713314536278899 0  1.342022964818772 -1.328315248672686 0  -2.556460939068198 1.202372762828344 0  -0.3497819755044588 -0.3080427614060888 0  -4.928440909495523 1.387622767511967 0  1.309170811945155 1.337467055109531 0  -1.352031940181449 -0.7151198948590243 0  -0.6132855723904642 0.9519045895123004 0  4.266838388406324 -0.3707357390867402 0  -3.834389788310238 1.371594798941152 0  -1.187890214580146 0.4851427123079557 0  -1.109118888029193 0.3185947354467283 0  0.1837819401738013 1.234799661476361 0  1.108165254659559 0.6237223548284967 0  -0.5266600156584522 -0.8113991260886402 0  -4.643822083543982 0.7834094684931707 0  -1.146235204666366 -0.4027330721405781 0  2.049029845992713 -0.2664662499985428 0  2.002665761665898 -1.328912351029848 0  -1.678783505586872 0.8978832065736417 0  -2.049499525232052 0.9483890761590005 0  -2.229972236535132 0.9181006323151361 0  -3.033763529945482 -1.54240494280775 0  -3.562344364746847 0.5622550957224539 0  -5.524396842903405 -0.2709714867672603 0  -0.9710982764034376 -1.549038578476423 0  3.058819320130555 -0.5375106252795963 0  -4.170365230099585 0.7342553699229977 0  -1.045878746461381 -8.187420622554697e-05 0  -1.864822945411764 -0.9219031104673102 0  -0.6251005091687033 -0.2120650512195049 0  2.317562622406059 0.4886417799113238 0  -0.6674371191466613 0.1483993095055008 0  -2.705757882979874 1.609712312948224 0  
[...]
<PointData  Vectors="f_22"> 
<DataArray  type="Float64"  Name="f_22"  NumberOfComponents="3" format="ascii">0.0000000000000000e+00 0.0000000000000000e+00 0.0000000000000000e+00  0.0000000000000000e+00 0.0000000000000000e+00 0.0000000000000000e+00  0.0000000000000000e+00 0.0000000000000000e+00 0.0000000000000000e+00  0.0000000000000000e+00 0.0000000000000000e+00 0.0000000000000000e+00  9.9999997996746604e-01 0.0000000000000000e+00 0.0000000000000000e+00  9.9999997996746604e-01 0.0000000000000000e+00 0.0000000000000000e+00  0.0000000000000000e+00 0.0000000000000000e+00 0.0000000000000000e+00  0.0000000000000000e+00 0.0000000000000000e+00 0.0000000000000000e+00  0.0000000000000000e+00 0.0000000000000000e+00 0.0000000000000000e+00  0.0000000000000000e+00 0.0000000000000000e+00 0.0000000000000000e+00  0.0000000000000000e+00 0.0000000000000000e+00 0.0000000000000000e+00  0.0000000000000000e+00 0.0000000000000000e+00 0.0000000000000000e+00  0.0000000000000000e+00 0.0000000000000000e+00 0.0000000000000000e+00  0.0000000000000000e+00 0.0000000000000000e+00 0.0000000000000000e+00  0.0000000000000000e+00 0.0000000000000000e+00 0.0000000000000000e+00  0.0000000000000000e+00 0.0000000000000000e+00 0.0000000000000000e+00  0.0000000000000000e+00 0.0000000000000000e+00 0.0000000000000000e+00  0.0000000000000000e+00 0.0000000000000000e+00 0.0000000000000000e+00  0.0000000000000000e+00 0.0000000000000000e+00 0.0000000000000000e+00  0.0000000000000000e+00 0.0000000000000000e+00 0.0000000000000000e+00  0.0000000000000000e+00 0.0000000000000000e+00 0.0000000000000000e+00  0.0000000000000000e+00 0.0000000000000000e+00 0.0000000000000000e+00  0.0000000000000000e+00 0.0000000000000000e+00 0.0000000000000000e+00  0.0000000000000000e+00 0.0000000000000000e+00 0.0000000000000000e+00  0.0000000000000000e+00 0.0000000000000000e+00 0.0000000000000000e+00  0.0000000000000000e+00 0.0000000000000000e+00 0.0000000000000000e+00  0.0000000000000000e+00 0.0000000000000000e+00 0.0000000000000000e+00  0.0000000000000000e+00 0.0000000000000000e+00 0.0000000000000000e+00  0.0000000000000000e+00 0.0000000000000000e+00 0.0000000000000000e+00  1.8081217620953302e-01 -1.1916055733879911e-04 0.0000000000000000e+00  1.8420432602732800e-01 2.1996670563342481e-04 0.0000000000000000e+00  1.8426404985579567e-01 3.5333106567436599e-05 0.0000000000000000e+00  1.8422724747895503e-01 9.1538059890206167e-06 0.0000000000000000e+00  1.8417025330861184e-01 5.4055357856646060e-07 0.0000000000000000e+00  1.8424623725204065e-01 6.7531243793509117e-05 0.0000000000000000e+00  1.8024729240061896e-01 -3.6853488713826922e-05 0.0000000000000000e+00  0.0000000000000000e+00 0.0000000000000000e+00 0.0000000000000000e+00  0.0000000000000000e+00 0.0000000000000000e+00 0.0000000000000000e+00  0.0000000000000000e+00 0.0000000000000000e+00 0.0000000000000000e+00  0.0000000000000000e+00 0.0000000000000000e+00 0.0000000000000000e+00  0.0000000000000000e+00 0.0000000000000000e+00 0.0000000000000000e+00  0.0000000000000000e+00 0.0000000000000000e+00 0.0000000000000000e+00  0.0000000000000000e+00 0.0000000000000000e+00 0.0000000000000000e+00  0.0000000000000000e+00 0.0000000000000000e+00 0.0000000000000000e+00  0.0000000000000000e+00 0.0000000000000000e+00 0.0000000000000000e+00  0.0000000000000000e+00 0.0000000000000000e+00 0.0000000000000000e+00  0.0000000000000000e+00 0.0000000000000000e+00 0.0000000000000000e+00  0.0000000000000000e+00 0.0000000000000000e+00 0.0000000000000000e+00  0.0000000000000000e+00 0.0000000000000000e+00 0.0000000000000000e+00  0.0000000000000000e+00 0.0000000000000000e+00 0.0000000000000000e+00  0.0000000000000000e+00 0.0000000000000000e+00 0.0000000000000000e+00  0.0000000000000000e+00 0.0000000000000000e+00 0.0000000000000000e+00  0.0000000000000000e+00 0.0000000000000000e+00 0.0000000000000000e+00  0.0000000000000000e+00 0.0000000000000000e+00 0.0000000000000000e+00  0.0000000000000000e+00 0.0000000000000000e+00 0.0000000000000000e+00  0.0000000000000000e+00 0.0000000000000000e+00 0.0000000000000000e+00  0.0000000000000000e+00 0.0000000000000000e+00 0.0000000000000000e+00  0.0000000000000000e+00 0.0000000000000000e+00 0.0000000000000000e+00  0.0000000000000000e+00 0.0000000000000000e+00 0.0000000000000000e+00  1.7902164260843406e-01 -5.9517861791345611e-04 0.0000000000000000e+00  1.8260126388529599e-01 -7.6311964892578413e-04 0.0000000000000000e+00  1.8812235380716080e-01 -8.1291736189447481e-04 0.0000000000000000e+00  1.9089864976991536e-01 3.7492100746372946e-04 0.0000000000000000e+00  1.8889860480003884e-01 5.0694248951666876e-04 0.0000000000000000e+00  1.8326576870411185e-01 8.8176878316896209e-04 0.0000000000000000e+00  1.7879551260430782e-01 6.1580332599990009e-04 0.0000000000000000e+00  9.9999997996746604e-01 0.0000000000000000e+00 0.0000000000000000e+00  9.9999997996746604e-01 0.0000000000000000e+00 0.0000000000000000e+00  9.9999997996746604e-01 0.0000000000000000e+00 0.0000000000000000e+00  9.9999997996746604e-01 0.0000000000000000e+00 0.0000000000000000e+00  9.9999997996746604e-01 0.0000000000000000e+00 0.0000000000000000e+00  9.9999997996746604e-01 0.0000000000000000e+00 0.0000000000000000e+00  9.9999997996746604e-01 0.0000000000000000e+00 0.0000000000000000e+00  9.9999997996746604e-01 0.0000000000000000e+00 0.0000000000000000e+00  9.9999997996746604e-01 0.0000000000000000e+00 0.0000000000000000e+00  9.9999997996746604e-01 0.0000000000000000e+00 0.0000000000000000e+00  9.9999997996746604e-01 0.0000000000000000e+00 0.0000000000000000e+00  9.9999997996746604e-01 0.0000000000000000e+00 0.0000000000000000e+00  9.9999997996746604e-01 0.0000000000000000e+00 0.0000000000000000e+00  9.9999997996746604e-01 0.0000000000000000e+00 0.0000000000000000e+00  9.9999997996746604e-01 0.0000000000000000e+00 0.0000000000000000e+00  9.9999997996746604e-01 0.0000000000000000e+00 0.0000000000000000e+00  9.9999997996746604e-01 0.0000000000000000e+00 0.0000000000000000e+00  9.9999997996746604e-01 0.0000000000000000e+00 0.0000000000000000e+00  9.9999997996746604e-01 0.0000000000000000e+00 0.0000000000000000e+00  9.9999997996746604e-01 0.0000000000000000e+00 0.0000000000000000e+00  9.9999997996746604e-01 0.0000000000000000e+00 0.0000000000000000e+00  9.9999997996746604e-01 0.0000000000000000e+00 0.0000000000000000e+00  9.9999997996746604e-01 0.0000000000000000e+00 0.0000000000000000e+00  9.9999997996746604e-01 0.0000000000000000e+00 0.0000000000000000e+00  9.9999997996746604e-01 0.0000000000000000e+00 0.0000000000000000e+00  9.9999997996746604e-01 0.0000000000000000e+00 0.0000000000000000e+00  9.9999997996746604e-01 0.0000000000000000e+00 0.0000000000000000e+00  9.9999997996746604e-01 0.0000000000000000e+00 0.0000000000000000e+00  9.9999997996746604e-01 0.0000000000000000e+00 0.0000000000000000e+00  9.9999997996746604e-01 0.0000000000000000e+00 0.0000000000000000e+00  9.9999997996746604e-01 0.0000000000000000e+00 0.0000000000000000e+00  9.9999997996746604e-01 0.0000000000000000e+00 0.0000000000000000e+00  9.9999997996746604e-01 0.0000000000000000e+00 0.0000000000000000e+00  9.9999997996746604e-01 0.0000000000000000e+00 0.0000000000000000e+00  9.9999997996746604e-01 0.0000000000000000e+00 0.0000000000000000e+00  9.9999997996746604e-01 0.0000000000000000e+00 0.0000000000000000e+00  9.9999997996746604e-01 0.0000000000000000e+00 0.0000000000000000e+00  9.9999997996746604e-01 0.0000000000000000e+00 0.0000000000000000e+00  9.9999997996746604e-01 0.0000000000000000e+00 0.0000000000000000e+00  9.9999997996746604e-01 0.0000000000000000e+00 0.0000000000000000e+00  9.9999997996746604e-01 0.0000000000000000e+00 0.0000000000000000e+00  9.9999997996746604e-01 0.0000000000000000e+00 0.0000000000000000e+00  9.9999997996746604e-01 0.0000000000000000e+00 0.0000000000000000e+00  9.9999997996746604e-01 0.0000000000000000e+00 0.0000000000000000e+00  9.9999997996746604e-01 0.0000000000000000e+00 0.0000000000000000e+00  9.9999997996746604e-01 0.0000000000000000e+00 0.0000000000000000e+00  9.9999997996746604e-01 0.0000000000000000e+00 0.0000000000000000e+00  9.9999997996746604e-01 0.0000000000000000e+00 0.0000000000000000e+00  9.9999997996746604e-01 0.0000000000000000e+00 0.0000000000000000e+00  9.9999997996746604e-01 0.0000000000000000e+00 0.0000000000000000e+00  9.9999997996746604e-01 0.0000000000000000e+00 0.0000000000000000e+00  9.9999997996746604e-01 0.0000000000000000e+00 0.0000000000000000e+00  9.9999997996746604e-01 0.0000000000000000e+00 0.0000000000000000e+00  9.9999997996746604e-01 0.0000000000000000e+00 0.0000000000000000e+00  9.9999997996746604e-01 0.0000000000000000e+00 0.0000000000000000e+00  9.9999997996746604e-01 0.0000000000000000e+00 0.0000000000000000e+00  9.9999997996746604e-01 0.0000000000000000e+00 0.0000000000000000e+00  9.9999997996746604e-01 0.0000000000000000e+00 0.0000000000000000e+00  9.9999997996746604e-01 0.0000000000000000e+00 0.0000000000000000e+00  9.9999997996746604e-01 0.0000000000000000e+00 0.0000000000000000e+00  9.9999997996746604e-01 0.0000000000000000e+00 0.0000000000000000e+00  9.9999997996746604e-01 0.0000000000000000e+00 0.0000000000000000e+00  2.9406348032877588e-01 2.6142119710180097e-02 0.0000000000000000e+00  2.1160750937798228e-01 -1.9017257658449589e-02 0.0000000000000000e+00  2.2423663588371701e-01 8.1187812096107356e-02 0.0000000000000000e+00  1.6255732176267337e-01 -1.3296305055558452e-01 0.0000000000000000e+00  2.3055588771515007e-01 3.6935149351566454e-01 0.0000000000000000e+00  3.5192363670689331e-01 -3.0715945591918836e-01 0.0000000000000000e+00  3.1890539453408606e-01 -2.8239398031378933e-02 0.0000000000000000e+00  5.8280455070921416e-02 2.2461333623877283e-01 0.0000000000000000e+00  7.5741808080663975e-01 3.4571204130640167e-02 0.0000000000000000e+00  -2.4609404897352088e-01 3.6568717381970989e-01 0.0000000000000000e+00  -5.8036664587143544e-02 -2.3595669086836801e-01 0.0000000000000000e+00  -1.0221074423770781e-03 -3.9685288454004741e-01 0.0000000000000000e+00  1.8764404571910795e-01 2.8404047909243170e-05 0.0000000000000000e+00  -2.6365882010030034e-01 2.9552841176168032e-01 0.0000000000000000e+00  -4.5172037046147046e-01 -3.0343762186002382e-01 0.0000000000000000e+00  -7.3756715650155180e-01 -3.2962806520851359e-02 0.0000000000000000e+00  -6.2991945443672004e-01 -1.3013492269752125e-01 0.0000000000000000e+00  3.2785495330727099e-01 1.9585804983627908e-01 0.0000000000000000e+00  -5.5840129350028078e-01 2.7313024636118011e-01 0.0000000000000000e+00  6.9035444516485167e-01 2.2558609396247908e-01 0.0000000000000000e+00  3.5572793201270686e-01 -2.2189939266725842e-01 0.0000000000000000e+00  7.4275912640995978e-01 -1.8772324749159766e-01 0.0000000000000000e+00  1.8442019731453010e-01 8.7002858321828886e-05 0.0000000000000000e+00  5.0371638174246525e-01 -5.1510881433805493e-02 0.0000000000000000e+00  1.9334388887537243e-01 -4.2139394108539052e-01 0.0000000000000000e+00  -8.7448811602594420e-02 -4.9942437248225963e-01 0.0000000000000000e+00  1.9219457965073697e-01 1.0518710782656473e-02 0.0000000000000000e+00  3.1382081150500968e-01 4.0470256867410909e-01 0.0000000000000000e+00  3.3721474891106558e-02 5.1255886665726724e-01 0.0000000000000000e+00  -6.0345596212992236e-01 -3.1134728874568574e-01 0.0000000000000000e+00  9.0774439061120527e-01 8.7508519804944548e-02 0.0000000000000000e+00  9.3716356245553878e-01 -2.2377976963992751e-02 0.0000000000000000e+00  7.4232486797470354e-01 2.0824860637301310e-01 0.0000000000000000e+00  5.0272585517019186e-01 2.2244183344670848e-01 0.0000000000000000e+00  7.9206279720709238e-01 -1.8299995812627717e-01 0.0000000000000000e+00  5.9388084587461676e-01 -2.3957638126884656e-01 0.0000000000000000e+00  1.9261186746691134e-01 -1.7723835238598596e-02 0.0000000000000000e+00  1.8968263739711458e-01 1.5018714532372574e-02 0.0000000000000000e+00  5.2258671576042637e-01 2.3289429028198511e-01 0.0000000000000000e+00  1.8443884034695787e-01 -5.2878779187111942e-04 0.0000000000000000e+00  -4.3226863320361431e-01 1.9229603083197228e-01 0.0000000000000000e+00  1.8423640320122933e-01 -2.2523740063537034e-05 0.0000000000000000e+00  5.5717185161734772e-01 -2.5154037412691249e-01 0.0000000000000000e+00  1.6669439010931861e-01 -2.6732184844512803e-02 0.0000000000000000e+00  -4.3559113524342447e-01 4.4783341020587292e-01 0.0000000000000000e+00  1.8389263378337564e-01 1.0007267160551665e-03 0.0000000000000000e+00  1.8603178333432419e-01 -7.4589099590428067e-03 0.0000000000000000e+00  1.4004587169601515e-01 1.1623255001735626e-01 0.0000000000000000e+00  1.5509482309055475e-01 -8.8606241670042968e-02 0.0000000000000000e+00  9.1057737582119158e-01 1.0329119225012909e-01 0.0000000000000000e+00  9.3809176838604280e-01 -7.8744575133803993e-02 0.0000000000000000e+00  -2.6155292569677957e-01 -5.6164851451868780e-01 0.0000000000000000e+00  4.6800661673344346e-01 -4.3342464210266096e-01 0.0000000000000000e+00  -1.7931134991814052e-01 -6.2594527112806914e-02 0.0000000000000000e+00  -4.4961227875942483e-01 -4.1947704104316380e-01 0.0000000000000000e+00  1.8364022011511591e-01 -4.0406908758088278e-03 0.0000000000000000e+00  -1.5712868292019019e-01 5.7302977207069150e-01 0.0000000000000000e+00  5.2649382438520675e-01 -9.4331763284390607e-02 0.0000000000000000e+00  -3.5828155950769847e-01 2.9147462887927145e-01 0.0000000000000000e+00  2.3891697594884664e-01 1.3689435605160626e-02 0.0000000000000000e+00  1.8372537575953282e-01 2.2971196940443355e-04 0.0000000000000000e+00  1.6848051082114104e-01 2.6041166929242899e-02 0.0000000000000000e+00  1.9732314314786475e-01 -2.1992202385413065e-03 0.0000000000000000e+00  1.2592273407155918e-01 6.3518528503944613e-02 0.0000000000000000e+00  6.7691987947605003e-01 4.4405169454407124e-02 0.0000000000000000e+00  2.3264694650237439e-01 -6.4815803891213733e-02 0.0000000000000000e+00  -9.7806478817282411e-02 -2.3671620257860337e-01 0.0000000000000000e+00  1.6898417479862057e-01 -5.9399212781589261e-01 0.0000000000000000e+00  1.8075505784475274e-01 4.6782149932438170e-03 0.0000000000000000e+00  9.7270339951657891e-01 2.9393112838450908e-02 0.0000000000000000e+00  2.9001227157883491e-01 5.8321552324772086e-01 0.0000000000000000e+00  4.8936510679565992e-01 4.2666199278348432e-01 0.0000000000000000e+00  8.5864787520030528e-01 1.2763609908754950e-01 0.0000000000000000e+00  4.3223977645389627e-01 1.6642029493663230e-01 0.0000000000000000e+00  1.8424879010880368e-01 1.3313360078313860e-05 0.0000000000000000e+00  8.8136674995894571e-01 -1.1770379192348895e-01 0.0000000000000000e+00  -2.6009724638460202e-01 -2.2720025021125864e-01 0.0000000000000000e+00  1.8322920424109893e-01 2.6017039304165949e-04 0.0000000000000000e+00  9.7891736567964838e-01 -2.4906691966993060e-02 0.0000000000000000e+00  2.1450381723951661e-01 2.7256336762452576e-03 0.0000000000000000e+00  1.8504463000733221e-01 -4.2010390859193778e-05 0.0000000000000000e+00  3.9863179060500925e-01 8.2055596151347221e-02 0.0000000000000000e+00  1.7811276963620531e-01 6.5866302340669971e-03 0.0000000000000000e+00  5.2193310445183738e-01 -8.4406253139830981e-02 0.0000000000000000e+00  2.0041955238218595e-01 2.9308923732271744e-02 0.0000000000000000e+00  -1.9221578039945378e-01 2.4960511457514514e-01 0.0000000000000000e+00  2.0437611252912039e-01 2.2437594773223990e-02 0.0000000000000000e+00  7.0353638085582926e-01 1.0035934867741472e-01 0.0000000000000000e+00  -6.7162989399394329e-02 -6.4656698410915181e-01 0.0000000000000000e+00  1.8283313291159542e-01 -1.9077522628293465e-04 0.0000000000000000e+00  -6.9948862479581841e-01 1.6262810044668038e-01 0.0000000000000000e+00  6.1362256416768055e-02 -7.6601198742419552e-02 0.0000000000000000e+00  6.7101566209075458e-01 2.9789126710226854e-01 0.0000000000000000e+00  -3.4469279999510499e-01 5.3810898890307468e-01 0.0000000000000000e+00  -4.0181968401658918e-01 4.2388050289308149e-01 0.0000000000000000e+00  2.2649174607638564e-01 -4.4747064386298607e-02 0.0000000000000000e+00  2.0626512774951991e-01 4.3862997073158740e-03 0.0000000000000000e+00  6.9745232193679418e-01 -1.9024381610450364e-01 0.0000000000000000e+00  2.6564172716504342e-01 -1.4510134523637194e-01 0.0000000000000000e+00  2.8007335905675662e-01 6.5190063979909924e-02 0.0000000000000000e+00  1.9433711974146106e-01 1.5429216657328776e-01 0.0000000000000000e+00  6.0175832560519771e-01 2.1546094673459898e-01 0.0000000000000000e+00  1.0542715082307252e-01 -2.2816009944650065e-01 0.0000000000000000e+00  1.8195521143749088e-01 -1.0090255995339810e-03 0.0000000000000000e+00  1.8273784498079162e-01 8.7965493721142666e-05 0.0000000000000000e+00  4.9860088512096674e-02 6.6224149663559828e-01 0.0000000000000000e+00  1.6117060675854722e-01 -2.5931768661115424e-02 0.0000000000000000e+00  -2.7744670777159680e-01 -3.4859954188920883e-01 0.0000000000000000e+00  6.6375622115542698e-01 -1.4291195967106948e-01 0.0000000000000000e+00  1.7357346461851098e-01 -8.6197085338050941e-03 0.0000000000000000e+00  1.5860391494332951e-01 2.7917436390273592e-02 0.0000000000000000e+00  8.6163011758930808e-01 -1.1982730813001349e-01 0.0000000000000000e+00  1.5059296098003730e-01 3.8866798446368095e-01 0.0000000000000000e+00  1.8445489629384229e-01 -1.7536457445855823e-04 0.0000000000000000e+00  1.2569315114504612e-01 -5.0977909212293254e-02 0.0000000000000000e+00  9.2758993253830768e-01 8.4988489123705352e-02 0.0000000000000000e+00  9.6121442856177042e-01 5.6975094204528974e-02 0.0000000000000000e+00  5.4379033397881353e-02 1.7843628891049773e-01 0.0000000000000000e+00  2.0937769142766527e-01 4.4396993392349850e-02 0.0000000000000000e+00  3.2999110726113767e-01 -3.4620120290228196e-01 0.0000000000000000e+00  1.8913880117080126e-01 -1.9944580025717643e-02 0.0000000000000000e+00  9.4711074484109770e-01 -7.0919416446794031e-02 0.0000000000000000e+00  1.9331859798103029e-01 -4.5238098324873943e-03 0.0000000000000000e+00  1.7623271351657938e-01 -8.3102450088823158e-03 0.0000000000000000e+00  3.8087470611489938e-01 -5.6096911049350884e-03 0.0000000000000000e+00  -3.0743247227043607e-01 -3.1092369870471054e-01 0.0000000000000000e+00  -3.7770646484228643e-01 -4.8350950582197655e-01 0.0000000000000000e+00  -5.9502061496719751e-02 8.4460610576096135e-02 0.0000000000000000e+00  2.5286218876083982e-01 -1.2542265777950856e-01 0.0000000000000000e+00  1.9035474395489252e-01 1.0802125389187225e-03 0.0000000000000000e+00  -5.3238800000729192e-01 -1.6556294679815753e-01 0.0000000000000000e+00  1.8526489899618589e-01 -1.4296701329065053e-03 0.0000000000000000e+00  1.9746361808858368e-01 -4.5892590030552509e-02 0.0000000000000000e+00  9.8288842987829628e-01 -1.1954246504904601e-04 0.0000000000000000e+00  4.9979381831248192e-02 1.2006920815614104e-01 0.0000000000000000e+00  8.1865877204794846e-01 -8.7718369755786174e-02 0.0000000000000000e+00  1.8856804016347428e-01 4.8679243346540935e-03 0.0000000000000000e+00  8.5331408729583447e-01 5.9356694150509544e-02 0.0000000000000000e+00  -1.9912286240758734e-01 -8.4331408633482763e-02 0.0000000000000000e+00  1.7130867866774718e-01 8.4918936562835591e-03 0.0000000000000000e+00  3.3361957370901757e-01 -5.8525313306077154e-01 0.0000000000000000e+00  6.2096678586359744e-01 -4.3180885126818580e-01 0.0000000000000000e+00  8.7304168722640785e-01 -9.7085533999703211e-02 0.0000000000000000e+00  2.1053181040177307e-01 2.5817474889480735e-01 0.0000000000000000e+00  1.7964652912380064e-01 -1.4843835263690065e-03 0.0000000000000000e+00  8.1891556823725439e-02 -2.2034911024938106e-01 0.0000000000000000e+00  -6.2121846850813545e-01 8.8711782664757946e-02 0.0000000000000000e+00  2.2265739166721954e-01 -2.5751272551996018e-01 0.0000000000000000e+00  -6.1032700622632641e-01 -9.4768076893020831e-02 0.0000000000000000e+00  2.5754042700132918e-01 -1.8301601519418575e-02 0.0000000000000000e+00  8.4848941574455738e-01 1.1953668511131173e-01 0.0000000000000000e+00  8.0534117608422062e-01 1.4049850198477146e-01 0.0000000000000000e+00  5.6409832823751749e-01 4.2439862420803448e-01 0.0000000000000000e+00  4.2329156138364360e-01 3.3486889604536624e-01 0.0000000000000000e+00  9.8269028394940461e-01 -3.1096980068