<?xml version="1.0"?>
<VTKFile type="UnstructuredGrid"  version="0.1"  >
<UnstructuredGrid>
<Piece  NumberOfPoints="622" NumberOfCells="1116">
<Points>
<DataArray  type="Float64"  NumberOfComponents="3"  format="ascii">-6 -2 0  -6 2 0  6 2 0  6 -2 0  -2.8 0 0  -1.2 0 0  -5.500000000001853 -2 0  -5.000000000003705 -2 0  -4.500000000005556 -2 0  -4.000000000007409 -2 0  -3.50000000000926 -2 0  -3.000000000011112 -2 0  -2.500000000012963 -2 0  -2.000000000014814 -2 0  -1.500000000016665 -2 0  -1.000000000018516 -2 0  -0.5000000000203677 -2 0  -2.204547655537681e-11 -2 0  0.4999999999796305 -2 0  0.9999999999814779 -2 0  1.499999999983327 -2 0  1.999999999985175 -2 0  2.499999999987029 -2 0  2.999999999988882 -2 0  3.499999999990735 -2 0  3.999999999992589 -2 0  4.49999999999444 -2 0  4.999999999996293 -2 0  5.499999999998147 -2 0  6 -1.500000000001387 0  6 -1.000000000002774 0  6 -0.5000000000041616 0  6 -5.505595979116151e-12 0  6 0.4999999999958384 0  6 0.9999999999972258 0  6 1.499999999998613 0  5.500000000001853 2 0  5.000000000003705 2 0  4.500000000005556 2 0  4.000000000007409 2 0  3.50000000000926 2 0  3.000000000011112 2 0  2.500000000012963 2 0  2.000000000014814 2 0  1.500000000016665 2 0  1.000000000018516 2 0  0.5000000000203677 2 0  2.204547655537681e-11 2 0  -0.4999999999796305 2 0  -0.9999999999814779 2 0  -1.499999999983327 2 0  -1.999999999985175 2 0  -2.499999999987029 2 0  -2.999999999988882 2 0  -3.499999999990735 2 0  -3.999999999992589 2 0  -4.49999999999444 2 0  -4.999999999996293 2 0  -5.499999999998147 2 0  -6 1.500000000001387 0  -6 1.000000000002774 0  -6 0.5000000000041616 0  -6 5.505595979116151e-12 0  -6 -0.4999999999958384 0  -6 -0.9999999999972258 0  -6 -1.499999999998613 0  -2.796147781337886 -0.07841371226233997 0  -2.784628224322852 -0.1560722576115546 0  -2.765552268586196 -0.2322277418021561 0  -2.739103626009626 -0.30614674589063 0  -2.705537011479457 -0.3771173894593519 0  -2.665175689843037 -0.4444561864141836 0  -2.618408362691456 -0.5075146273293722 0  -2.565685424950688 -0.5656854249477874 0  -2.507514627332613 -0.6184083626887972 0  -2.444456186417533 -0.6651756898407991 0  -2.377117389462776 -0.7055370114776264 0  -2.306146745894456 -0.7391036260080417 0  -2.232227741806235 -0.7655522685849585 0  -2.15607225761588 -0.784628224321992 0  -2.078413712266957 -0.7961477813374315 0  -2.000000000003407 -0.7999999999999998 0  -1.921586287739523 -0.7961477813380696 0  -1.843927742389945 -0.7846282243231506 0  -1.767772258198879 -0.7655522685865098 0  -1.693853254109962 -0.7391036260098718 0  -1.622882610540873 -0.7055370114795768 0  -1.555543813585629 -0.6651756898429115 0  -1.49248537267008 -0.6184083626910072 0  -1.434314575051535 -0.5656854249500112 0  -1.381591637310384 -0.5075146273316149 0  -1.334824310158267 -0.4444561864161359 0  -1.294462988521423 -0.3771173894609975 0  -1.260896373990956 -0.3061467458920351 0  -1.234447731414138 -0.2322277418032578 0  -1.215371775677287 -0.156072257612254 0  -1.203852218662147 -0.07841371226267954 0  -1.203852218662115 0.07841371226235888 0  -1.215371775677132 0.156072257611478 0  -1.234447731413795 0.232227741802127 0  -1.260896373990353 0.3061467458905811 0  -1.294462988520456 0.3771173894591898 0  -1.334824310156812 0.444456186413959 0  -1.381591637308413 0.5075146273292139 0  -1.434314575049147 0.5656854249476236 0  -1.492485372667197 0.6184083626886415 0  -1.555543813582104 0.6651756898405565 0  -1.62288261053673 0.7055370114773629 0  -1.693853254105125 0.7391036260078683 0  -1.767772258193396 0.7655522685848468 0  -1.84392774238373 0.7846282243219146 0  -1.921586287732977 0.7961477813374253 0  -1.999999999996558 0.8 0  -2.078413712260516 0.7961477813380661 0  -2.156072257610207 0.7846282243231205 0  -2.232227741801178 0.7655522685864928 0  -2.306146745890059 0.7391036260098632 0  -2.377117389459098 0.7055370114795929 0  -2.444456186414405 0.6651756898428894 0  -2.50751462732998 0.6184083626909587 0  -2.565685424948549 0.5656854249499272 0  -2.61840836268981 0.5075146273313792 0  -2.665175689841831 0.4444561864159886 0  -2.705537011478692 0.3771173894607835 0  -2.739103626009108 0.3061467458918818 0  -2.76555226858589 0.2322277418031643 0  -2.784628224322724 0.1560722576122001 0  -2.796147781337853 0.07841371226267957 0  0.6720367661319522 0.1312687487860887 0  -4.389489086394485 0.3544472233398538 0  -3.816221554046232 -0.6097988664512611 0  -3.552726516474419 0.9342959806851625 0  -0.2536610443052337 0.8162373554653355 0  -0.1843238977799138 -0.6649951410982842 0  -3.613359951620445 0.1086570650978273 0  -3.146954163409593 -1.074378179335012 0  -0.4255266515582625 0.07734891565364931 0  -0.9413731612925856 1.168014724254929 0  -2.947764053183577 1.200029094390044 0  -0.8319852757411681 -1.058626838707328 0  2.675418990747819 -1.137325591670363e-12 0  -2.602010642259726 -1.287560129290477 0  -2.334401622060699 1.335006108940604 0  -1.524718496628401 1.32890816230333 0  -1.369813829148039 -1.26145150481762 0  -3.294065651892671 -0.4630240940010318 0  -2.072749204569071 -1.388981302138359 0  -0.7546165313921411 0.5601792161340381 0  -3.224879719581335 0.4382689715877901 0  -0.7073137361349826 -0.4625305410752652 0  4.326242945813966 0.3262429458150917 0  -3.187880061217201 0.07437712177460168 0  -2.94792024259867 0.7030255657465158 0  -2.678809277907896 0.9152683582887104 0  -4.911626141576894 -0.5700186648601188 0  -2.980647654587299 -0.5685006168686053 0  -2.769438919323564 -0.8202775213660614 0  -1.936950121013948 1.220669938589229 0  -0.8971643766260747 0.2762459428874499 0  -0.8760878018253068 -0.06836412137772707 0  -1.086827485441145 0.6772548942594016 0  -1.31355927028917 0.8808768148414213 0  -1.034266382739347 -0.5912381576649568 0  -1.241594139118264 -0.836771920085274 0  1.667161185638911 -0.6367996576268693 0  1.778189842800902 0.7191719841256095 0  -3.065106827511819 -0.266795371500425 0  3.714311277362231 -0.7275465302492842 0  -1.728329421201519 -1.09954751473283 0  4.870629493137888 -0.7325040699186681 0  -3.024707894719303 0.2567561910603656 0  -4.375540207252226 1.228935704312058 0  -2.272077148001781 -1.086192861256262 0  3.351408248797803 0.9175227128129597 0  -5.141847419540732 0.8091901960109126 0  0.5769368286199241 1.111816231125821 0  0.7411482978492124 -1.079569101289617 0  -1.074013749991219 0.430231207546053 0  -1.04664573441257 -0.3358382377487088 0  -2.439195336951085 0.9224778883059374 0  -2.902607676587358 0.4360473765597399 0  -1.629450174302152 1.035617385691805 0  -2.146859933125513 1.032375363966426 0  2.587625196444542 -0.9999926061845814 0  -2.529286802957126 -0.8830616815739111 0  -1.493798157676768 -0.8794705728517196 0  -1.932158132383022 -1.026681566564148 0  -4.09956359341904 -0.1372485582942864 0  5.055802064425553 1.050933510837308 0  -4.413659685984891 -1.207626391697488 0  -4.961411026474009 0.1201902955685026 0  -3.771151641156835 -1.303594976371997 0  -3.001321503506133 -0.04919177107285733 0  -3.881733605683001 0.5124517634812003 0  -0.1971627317996802 -1.336445372382849 0  -2.742825060181767 0.6732573903735507 0  2.520439429199979 1.129372838786189 0  -1.026326428668429 0.1384273198437734 0  -2.779290004861729 -0.5844691722665721 0  -2.895095740820851 -0.4261289730972082 0  -1.275682076193407 0.6630703172777138 0  0.1045291701958869 0.3433373435296472 0  5.175560481258801 0.0608563229178163 0  -1.211574424201636 -0.5847362589868093 0  -1.85847006217035 1.007917631940711 0  4.152535916385823 1.131901130662082 0  -1.04878257200685 -0.1253529988863012 0  1.432836501626023 0.05634449574318775 0  3.560672936003603 0.01188897172456759 0  -3.351823698389408 -0.1821329582635926 0  -5.145153363200735 -1.259166339382508 0  0.03473693330309885 -0.1724947236036572 0  -4.377830921337186 -0.6172564090242229 0  -0.3943750728122595 1.410897156959435 0  -1.661073679471639 -0.9342065000197183 0  -1.49086536677686 0.8331714487926741 0  -2.584486130952032 0.7871482690034864 0  4.270535884593893 -1.259607924744415 0  -1.757417028085795 -1.505182186951191 0  -3.430586920998477 1.425579221231371 0  -2.917598827418652 -0.2298465409534677 0  -2.328978331116049 -0.9300959620317677 0  -2.148543000691344 -0.9751580214451921 0  1.002654111360038 -0.4521702885594788 0  -4.628651824080903 -0.1127998710567241 0  -2.948904386702482 0.1555943115410545 0  0.4165242577134774 -0.5629432649478633 0  -3.698137692471105 -0.3173027948676715 0  -3.491400684461791 -0.7926319721650269 0  -0.3844454817728994 0.4680628696134375 0  -3.207830713508533 0.9778749990559993 0  3.229909751065535 -1.326302454776001 0  5.330007715336748 -1.312905173261894 0  -2.649214054100534 -0.713314536278899 0  1.342022964818772 -1.328315248672686 0  -2.556460939068198 1.202372762828344 0  -0.3497819755044588 -0.3080427614060888 0  -4.928440909495523 1.387622767511967 0  1.309170811945155 1.337467055109531 0  -1.352031940181449 -0.7151198948590243 0  -0.6132855723904642 0.9519045895123004 0  4.266838388406324 -0.3707357390867402 0  -3.834389788310238 1.371594798941152 0  -1.187890214580146 0.4851427123079557 0  -1.109118888029193 0.3185947354467283 0  0.1837819401738013 1.234799661476361 0  1.108165254659559 0.6237223548284967 0  -0.5266600156584522 -0.8113991260886402 0  -4.643822083543982 0.7834094684931707 0  -1.146235204666366 -0.4027330721405781 0  2.049029845992713 -0.2664662499985428 0  2.002665761665898 -1.328912351029848 0  -1.678783505586872 0.8978832065736417 0  -2.049499525232052 0.9483890761590005 0  -2.229972236535132 0.9181006323151361 0  -3.033763529945482 -1.54240494280775 0  -3.562344364746847 0.5622550957224539 0  -5.524396842903405 -0.2709714867672603 0  -0.9710982764034376 -1.549038578476423 0  3.058819320130555 -0.5375106252795963 0  -4.170365230099585 0.7342553699229977 0  -1.045878746461381 -8.187420622554697e-05 0  -1.864822945411764 -0.9219031104673102 0  -0.6251005091687033 -0.2120650512195049 0  2.317562622406059 0.4886417799113238 0  -0.6674371191466613 0.1483993095055008 0  -2.705757882979874 1.609712312948224 0  
[...]
<PointData  Vectors="f_22"> 
<DataArray  type="Float64"  Name="f_22"  NumberOfComponents="3" format="ascii">0.0000000000000000e+00 0.0000000000000000e+00 0.0000000000000000e+00  0.0000000000000000e+00 0.0000000000000000e+00 0.0000000000000000e+00  0.0000000000000000e+00 0.0000000000000000e+00 0.0000000000000000e+00  0.0000000000000000e+00 0.0000000000000000e+00 0.0000000000000000e+00  9.9999997494596993e-01 0.0000000000000000e+00 0.0000000000000000e+00  9.9999997494596993e-01 0.0000000000000000e+00 0.0000000000000000e+00  0.0000000000000000e+00 0.0000000000000000e+00 0.0000000000000000e+00  0.0000000000000000e+00 0.0000000000000000e+00 0.0000000000000000e+00  0.0000000000000000e+00 0.0000000000000000e+00 0.0000000000000000e+00  0.0000000000000000e+00 0.0000000000000000e+00 0.0000000000000000e+00  0.0000000000000000e+00 0.0000000000000000e+00 0.0000000000000000e+00  0.0000000000000000e+00 0.0000000000000000e+00 0.0000000000000000e+00  0.0000000000000000e+00 0.0000000000000000e+00 0.0000000000000000e+00  0.0000000000000000e+00 0.0000000000000000e+00 0.0000000000000000e+00  0.0000000000000000e+00 0.0000000000000000e+00 0.0000000000000000e+00  0.0000000000000000e+00 0.0000000000000000e+00 0.0000000000000000e+00  0.0000000000000000e+00 0.0000000000000000e+00 0.0000000000000000e+00  0.0000000000000000e+00 0.0000000000000000e+00 0.0000000000000000e+00  0.0000000000000000e+00 0.0000000000000000e+00 0.0000000000000000e+00  0.0000000000000000e+00 0.0000000000000000e+00 0.0000000000000000e+00  0.0000000000000000e+00 0.0000000000000000e+00 0.0000000000000000e+00  0.0000000000000000e+00 0.0000000000000000e+00 0.0000000000000000e+00  0.0000000000000000e+00 0.0000000000000000e+00 0.0000000000000000e+00  0.0000000000000000e+00 0.0000000000000000e+00 0.0000000000000000e+00  0.0000000000000000e+00 0.0000000000000000e+00 0.0000000000000000e+00  0.0000000000000000e+00 0.0000000000000000e+00 0.0000000000000000e+00  0.0000000000000000e+00 0.0000000000000000e+00 0.0000000000000000e+00  0.0000000000000000e+00 0.0000000000000000e+00 0.0000000000000000e+00  0.0000000000000000e+00 0.0000000000000000e+00 0.0000000000000000e+00  3.1108617862338622e-01 1.3056366081082708e-04 0.0000000000000000e+00  3.4486835878599109e-01 1.5332763131217097e-04 0.0000000000000000e+00  3.4682467170379627e-01 -2.8320886754414875e-05 0.0000000000000000e+00  3.4695208298101671e-01 -1.5032862108792496e-05 0.0000000000000000e+00  3.4683859835591579e-01 -8.5709908558639746e-06 0.0000000000000000e+00  3.4554605350622253e-01 2.2682359659189247e-04 0.0000000000000000e+00  3.1167332033580714e-01 -5.3272796600884939e-04 0.0000000000000000e+00  0.0000000000000000e+00 0.0000000000000000e+00 0.0000000000000000e+00  0.0000000000000000e+00 0.0000000000000000e+00 0.0000000000000000e+00  0.0000000000000000e+00 0.0000000000000000e+00 0.0000000000000000e+00  0.0000000000000000e+00 0.0000000000000000e+00 0.0000000000000000e+00  0.0000000000000000e+00 0.0000000000000000e+00 0.0000000000000000e+00  0.0000000000000000e+00 0.0000000000000000e+00 0.0000000000000000e+00  0.0000000000000000e+00 0.0000000000000000e+00 0.0000000000000000e+00  0.0000000000000000e+00 0.0000000000000000e+00 0.0000000000000000e+00  0.0000000000000000e+00 0.0000000000000000e+00 0.0000000000000000e+00  0.0000000000000000e+00 0.0000000000000000e+00 0.0000000000000000e+00  0.0000000000000000e+00 0.0000000000000000e+00 0.0000000000000000e+00  0.0000000000000000e+00 0.0000000000000000e+00 0.0000000000000000e+00  0.0000000000000000e+00 0.0000000000000000e+00 0.0000000000000000e+00  0.0000000000000000e+00 0.0000000000000000e+00 0.0000000000000000e+00  0.0000000000000000e+00 0.0000000000000000e+00 0.0000000000000000e+00  0.0000000000000000e+00 0.0000000000000000e+00 0.0000000000000000e+00  0.0000000000000000e+00 0.0000000000000000e+00 0.0000000000000000e+00  0.0000000000000000e+00 0.0000000000000000e+00 0.0000000000000000e+00  0.0000000000000000e+00 0.0000000000000000e+00 0.0000000000000000e+00  0.0000000000000000e+00 0.0000000000000000e+00 0.0000000000000000e+00  0.0000000000000000e+00 0.0000000000000000e+00 0.0000000000000000e+00  0.0000000000000000e+00 0.0000000000000000e+00 0.0000000000000000e+00  0.0000000000000000e+00 0.0000000000000000e+00 0.0000000000000000e+00  3.0382527138091453e-01 -1.3058474906778447e-03 0.0000000000000000e+00  3.4208528016009071e-01 -9.6224786784332569e-04 0.0000000000000000e+00  3.5304156041162005e-01 -1.5319683083775269e-03 0.0000000000000000e+00  3.5909780747571801e-01 1.4165803377838690e-03 0.0000000000000000e+00  3.5434946699210751e-01 3.0773778486797940e-04 0.0000000000000000e+00  3.4377119619818253e-01 6.7241434010387147e-04 0.0000000000000000e+00  3.0364250548706778e-01 1.0079310191097319e-03 0.0000000000000000e+00  9.9999997494596993e-01 0.0000000000000000e+00 0.0000000000000000e+00  9.9999997494596993e-01 0.0000000000000000e+00 0.0000000000000000e+00  9.9999997494596993e-01 0.0000000000000000e+00 0.0000000000000000e+00  9.9999997494596993e-01 0.0000000000000000e+00 0.0000000000000000e+00  9.9999997494596993e-01 0.0000000000000000e+00 0.0000000000000000e+00  9.9999997494596993e-01 0.0000000000000000e+00 0.0000000000000000e+00  9.9999997494596993e-01 0.0000000000000000e+00 0.0000000000000000e+00  9.9999997494596993e-01 0.0000000000000000e+00 0.0000000000000000e+00  9.9999997494596993e-01 0.0000000000000000e+00 0.0000000000000000e+00  9.9999997494596993e-01 0.0000000000000000e+00 0.0000000000000000e+00  9.9999997494596993e-01 0.0000000000000000e+00 0.0000000000000000e+00  9.9999997494596993e-01 0.0000000000000000e+00 0.0000000000000000e+00  9.9999997494596993e-01 0.0000000000000000e+00 0.0000000000000000e+00  9.9999997494596993e-01 0.0000000000000000e+00 0.0000000000000000e+00  9.9999997494596993e-01 0.0000000000000000e+00 0.0000000000000000e+00  9.9999997494596993e-01 0.0000000000000000e+00 0.0000000000000000e+00  9.9999997494596993e-01 0.0000000000000000e+00 0.0000000000000000e+00  9.9999997494596993e-01 0.0000000000000000e+00 0.0000000000000000e+00  9.9999997494596993e-01 0.0000000000000000e+00 0.0000000000000000e+00  9.9999997494596993e-01 0.0000000000000000e+00 0.0000000000000000e+00  9.9999997494596993e-01 0.0000000000000000e+00 0.0000000000000000e+00  9.9999997494596993e-01 0.0000000000000000e+00 0.0000000000000000e+00  9.9999997494596993e-01 0.0000000000000000e+00 0.0000000000000000e+00  9.9999997494596993e-01 0.0000000000000000e+00 0.0000000000000000e+00  9.9999997494596993e-01 0.0000000000000000e+00 0.0000000000000000e+00  9.9999997494596993e-01 0.0000000000000000e+00 0.0000000000000000e+00  9.9999997494596993e-01 0.0000000000000000e+00 0.0000000000000000e+00  9.9999997494596993e-01 0.0000000000000000e+00 0.0000000000000000e+00  9.9999997494596993e-01 0.0000000000000000e+00 0.0000000000000000e+00  9.9999997494596993e-01 0.0000000000000000e+00 0.0000000000000000e+00  9.9999997494596993e-01 0.0000000000000000e+00 0.0000000000000000e+00  9.9999997494596993e-01 0.0000000000000000e+00 0.0000000000000000e+00  9.9999997494596993e-01 0.0000000000000000e+00 0.0000000000000000e+00  9.9999997494596993e-01 0.0000000000000000e+00 0.0000000000000000e+00  9.9999997494596993e-01 0.0000000000000000e+00 0.0000000000000000e+00  9.9999997494596993e-01 0.0000000000000000e+00 0.0000000000000000e+00  9.9999997494596993e-01 0.0000000000000000e+00 0.0000000000000000e+00  9.9999997494596993e-01 0.0000000000000000e+00 0.0000000000000000e+00  9.9999997494596993e-01 0.0000000000000000e+00 0.0000000000000000e+00  9.9999997494596993e-01 0.0000000000000000e+00 0.0000000000000000e+00  9.9999997494596993e-01 0.0000000000000000e+00 0.0000000000000000e+00  9.9999997494596993e-01 0.0000000000000000e+00 0.0000000000000000e+00  9.9999997494596993e-01 0.0000000000000000e+00 0.0000000000000000e+00  9.9999997494596993e-01 0.0000000000000000e+00 0.0000000000000000e+00  9.9999997494596993e-01 0.0000000000000000e+00 0.0000000000000000e+00  9.9999997494596993e-01 0.0000000000000000e+00 0.0000000000000000e+00  9.9999997494596993e-01 0.0000000000000000e+00 0.0000000000000000e+00  9.9999997494596993e-01 0.0000000000000000e+00 0.0000000000000000e+00  9.9999997494596993e-01 0.0000000000000000e+00 0.0000000000000000e+00  9.9999997494596993e-01 0.0000000000000000e+00 0.0000000000000000e+00  9.9999997494596993e-01 0.0000000000000000e+00 0.0000000000000000e+00  9.9999997494596993e-01 0.0000000000000000e+00 0.0000000000000000e+00  9.9999997494596993e-01 0.0000000000000000e+00 0.0000000000000000e+00  9.9999997494596993e-01 0.0000000000000000e+00 0.0000000000000000e+00  9.9999997494596993e-01 0.0000000000000000e+00 0.0000000000000000e+00  9.9999997494596993e-01 0.0000000000000000e+00 0.0000000000000000e+00  9.9999997494596993e-01 0.0000000000000000e+00 0.0000000000000000e+00  9.9999997494596993e-01 0.0000000000000000e+00 0.0000000000000000e+00  9.9999997494596993e-01 0.0000000000000000e+00 0.0000000000000000e+00  9.9999997494596993e-01 0.0000000000000000e+00 0.0000000000000000e+00  9.9999997494596993e-01 0.0000000000000000e+00 0.0000000000000000e+00  9.9999997494596993e-01 0.0000000000000000e+00 0.0000000000000000e+00  6.5593283653525003e-01 2.1851013501841404e-02 0.0000000000000000e+00  3.7009167558961137e-01 -1.2148884517378496e-02 0.0000000000000000e+00  3.7583390725645238e-01 5.7201016508917527e-02 0.0000000000000000e+00  3.3112683237178420e-01 -8.8066140026260259e-02 0.0000000000000000e+00  5.8988965858802600e-01 2.2412642829282647e-01 0.0000000000000000e+00  6.6381707558426017e-01 -1.6666437401074299e-01 0.0000000000000000e+00  4.4615163834943966e-01 -1.9593875179502580e-02 0.0000000000000000e+00  2.4452897259626738e-01 1.3073063687144931e-01 0.0000000000000000e+00  8.8166055503071872e-01 1.6425768476767508e-02 0.0000000000000000e+00  8.0149807469660217e-02 1.3106507939272538e-01 0.0000000000000000e+00  1.7063407848974685e-01 -1.1870796445756931e-01 0.0000000000000000e+00  3.6346684111976574e-01 -2.1269977846914115e-01 0.0000000000000000e+00  3.7389720069808724e-01 -1.6942430762060311e-04 0.0000000000000000e+00  2.5345199330672530e-02 1.6213125725388378e-01 0.0000000000000000e+00  -1.3617253537490401e-01 -2.3606504377732698e-01 0.0000000000000000e+00  -3.9284722562327301e-01 -2.4307507159807457e-01 0.0000000000000000e+00  -2.6913850225067953e-01 1.5309238328527444e-01 0.0000000000000000e+00  4.4459425521599455e-01 1.4841788809012127e-01 0.0000000000000000e+00  -2.9730539605608231e-01 2.7871529182073207e-01 0.0000000000000000e+00  8.8978605391537302e-01 1.2036590220318365e-01 0.0000000000000000e+00  4.6712706271091148e-01 -1.6636730321644949e-01 0.0000000000000000e+00  8.9389738963454934e-01 -9.9397280477365527e-02 0.0000000000000000e+00  3.4760750411785002e-01 6.1230169921048995e-04 0.0000000000000000e+00  5.8935708941886555e-01 -3.9063093122561059e-02 0.0000000000000000e+00  3.1231190942107534e-01 -3.0772322195158408e-01 0.0000000000000000e+00  5.9461941282677629e-02 -3.6325398932037206e-01 0.0000000000000000e+00  3.5585114841412291e-01 6.6020866564935514e-03 0.0000000000000000e+00  4.1165764304323460e-01 3.1384210223348408e-01 0.0000000000000000e+00  1.5439854355037283e-01 3.7383866172875901e-01 0.0000000000000000e+00  -3.2505237921521618e-01 -3.4103122672191888e-01 0.0000000000000000e+00  9.6067312233824020e-01 4.1762093397683546e-02 0.0000000000000000e+00  9.7060139637283804e-01 -1.1260211281782527e-02 0.0000000000000000e+00  9.7240694711697029e-01 7.9654464312827772e-02 0.0000000000000000e+00  6.8151041548482361e-01 1.7345014790503568e-02 0.0000000000000000e+00  9.6176072216789499e-01 -7.6394117086831290e-02 0.0000000000000000e+00  8.0694412331794585e-01 -4.5954517922434254e-02 0.0000000000000000e+00  4.0642751642694303e-01 -9.3854091539481183e-02 0.0000000000000000e+00  3.7412573607225530e-01 9.8859882234358279e-02 0.0000000000000000e+00  5.9920472195121544e-01 1.8935927372174147e-01 0.0000000000000000e+00  3.4696398715997573e-01 -3.2935096271340830e-03 0.0000000000000000e+00  -1.2318027697496994e-01 2.2689012686538718e-01 0.0000000000000000e+00  3.4664221033348158e-01 -3.2973703868317719e-04 0.0000000000000000e+00  6.2827640548556918e-01 -2.0338547413953112e-01 0.0000000000000000e+00  3.2745406831200741e-01 -1.8773596416996111e-02 0.0000000000000000e+00  -2.5267726672825269e-01 4.2278809767272840e-01 0.0000000000000000e+00  3.4285061565834057e-01 6.5621380228407175e-03 0.0000000000000000e+00  3.4853486096868053e-01 -4.3480429951627108e-03 0.0000000000000000e+00  2.5535191692951076e-01 1.4221342961785879e-01 0.0000000000000000e+00  2.7585009689537243e-01 -1.3929767752137254e-01 0.0000000000000000e+00  9.7249277101783993e-01 4.3082190993803407e-02 0.0000000000000000e+00  9.7659978765708555e-01 -3.4551469988072070e-02 0.0000000000000000e+00  -1.3797888857031437e-01 -5.0115258833295995e-01 0.0000000000000000e+00  5.3973644927783548e-01 -3.5035882672810315e-01 0.0000000000000000e+00  7.2426947258374244e-02 -1.5934041121017317e-01 0.0000000000000000e+00  -2.7394613434799209e-01 -3.9803988276251340e-01 0.0000000000000000e+00  3.3308380802337012e-01 -2.9415694355320061e-02 0.0000000000000000e+00  -4.6219291797769221e-02 4.8924005087430494e-01 0.0000000000000000e+00  6.1564036415651824e-01 1.6208197840240846e-02 0.0000000000000000e+00  -1.7046849621196261e-01 2.8189427654521104e-01 0.0000000000000000e+00  3.8910488427995676e-01 9.9518774080520137e-03 0.0000000000000000e+00  3.4379196430385889e-01 5.1758610927913706e-04 0.0000000000000000e+00  3.2900714275653908e-01 1.7912852438442140e-02 0.0000000000000000e+00  3.6194147615392352e-01 -9.1580412548336002e-04 0.0000000000000000e+00  2.9534761868566622e-01 4.1925933512239624e-02 0.0000000000000000e+00  7.2952513047504897e-01 3.7176246622156545e-02 0.0000000000000000e+00  3.8288491713908879e-01 -4.4617517856205303e-02 0.0000000000000000e+00  -1.4328058774703945e-02 -2.2192017144939999e-01 0.0000000000000000e+00  2.5383955957710397e-01 -4.7177585885141032e-01 0.0000000000000000e+00  3.2158989708584679e-01 3.0950634146423787e-02 0.0000000000000000e+00  9.8789078793683971e-01 1.3335343297607733e-02 0.0000000000000000e+00  3.6090706796555566e-01 4.7890866799126652e-01 0.0000000000000000e+00  5.5747560565575083e-01 3.4673145175032843e-01 0.0000000000000000e+00  1.0031683470305695e+00 2.5806459378120636e-02 0.0000000000000000e+00  7.2187901447535463e-01 6.8905668343498414e-02 0.0000000000000000e+00  3.4709752672096283e-01 1.0917700067558188e-04 0.0000000000000000e+00  9.8913874988953188e-01 -3.4454745344972101e-02 0.0000000000000000e+00  -7.8750575096483019e-02 -2.3083443341022827e-01 0.0000000000000000e+00  3.4155244030820953e-01 1.1034142008988026e-03 0.0000000000000000e+00  9.9061685866059046e-01 -1.1580774070316786e-02 0.0000000000000000e+00  5.3484966144709023e-01 9.1103246124497900e-03 0.0000000000000000e+00  3.5146673014466145e-01 1.4148168572030706e-04 0.0000000000000000e+00  5.0553466760813148e-01 6.4132113983622188e-02 0.0000000000000000e+00  3.3144927510531014e-01 4.4527945408284857e-03 0.0000000000000000e+00  7.7035601761672690e-01 -3.6288508656160935e-02 0.0000000000000000e+00  3.6087142708948600e-01 1.9768897673332373e-02 0.0000000000000000e+00  -1.1773537996168502e-01 2.2184438448227042e-01 0.0000000000000000e+00  3.0365668167651733e-01 7.6827127996984670e-02 0.0000000000000000e+00  7.8838889092112219e-01 -2.6403013411786238e-03 0.0000000000000000e+00  2.0969378179979306e-02 -5.5403395298763269e-01 0.0000000000000000e+00  3.3712561844264038e-01 -6.4294702619179672e-04 0.0000000000000000e+00  -4.7354679095792007e-01 2.4425018993276987e-01 0.0000000000000000e+00  2.4304344562970567e-01 -4.5683665419495680e-02 0.0000000000000000e+00  7.2061200952487836e-01 2.4706612137787351e-01 0.0000000000000000e+00  -2.2968802813407618e-01 4.9987792334216213e-01 0.0000000000000000e+00  -2.6486779343075478e-01 3.8828271269210013e-01 0.0000000000000000e+00  5.4422739258962072e-01 -7.0245282748931714e-02 0.0000000000000000e+00  3.6758649949515554e-01 3.2124823305937850e-03 0.0000000000000000e+00  7.4611613862646953e-01 -1.5382473381220005e-01 0.0000000000000000e+00  5.8921850871209447e-01 -9.7952868902010215e-02 0.0000000000000000e+00  4.1679207683348329e-01 4.8148209818119007e-02 0.0000000000000000e+00  3.5049665411618064e-01 1.0520820314593138e-01 0.0000000000000000e+00  8.0176435407421409e-01 1.1444194455715541e-01 0.0000000000000000e+00  2.8214474134475886e-01 -1.4106735450625293e-01 0.0000000000000000e+00  3.2703060121808764e-01 -5.0267579724340263e-03 0.0000000000000000e+00  3.3447790715752046e-01 -2.7438453066064135e-05 0.0000000000000000e+00  1.2509312570594236e-01 5.6176003665064900e-01 0.0000000000000000e+00  1.8219009395624855e-01 -1.0789663099236878e-01 0.0000000000000000e+00  -1.5851701583934084e-02 -2.2754177702464745e-01 0.0000000000000000e+00  8.3295158317051210e-01 -7.2744463273374055e-02 0.0000000000000000e+00  3.1823404114756204e-01 -5.9522619295711912e-03 0.0000000000000000e+00  1.7146197993654427e-01 1.0665444300568935e-01 0.0000000000000000e+00  9.9634993517637560e-01 -1.5467301476329822e-02 0.0000000000000000e+00  5.5667822827492452e-01 2.7467694098515216e-01 0.0000000000000000e+00  3.4767991720434416e-01 -7.2848215287296670e-04 0.0000000000000000e+00  2.8894413237391697e-01 -3.4624881113809625e-02 0.0000000000000000e+00  9.8300507860636277e-01 2.9588811037736171e-02 0.0000000000000000e+00  9.8546273183661937e-01 2.4121695418094710e-02 0.0000000000000000e+00  1.4987624882837966e-01 1.7482962105015193e-01 0.0000000000000000e+00  4.7468415550715537e-01 9.3531241082327313e-02 0.0000000000000000e+00  6.9546763384238264e-01 -2.3169216674464596e-01 0.0000000000000000e+00  3.5191795548377303e-01 -1.2636799178145738e-02 0.0000000000000000e+00  9.8330290231540174e-01 -2.8136307785228590e-02 0.0000000000000000e+00  4.2361583592149077e-01 -3.8752199476299889e-02 0.0000000000000000e+00  2.7170498292220874e-01 -5.3636333649369185e-02 0.0000000000000000e+00  4.3548844791650299e-01 -4.2822103994955903e-02 0.0000000000000000e+00  -1.9435948856964452e-01 -2.8886351059063936e-01 0.0000000000000000e+00  -2.6856732977469977e-01 -4.5222772166437120e-01 0.0000000000000000e+00  1.6073379489628795e-01 3.2315788335637155e-02 0.0000000000000000e+00  3.9571845226735364e-01 -8.8871540474129457e-02 0.0000000000000000e+00  3.5736145716814538e-01 8.8935851429070066e-04 0.0000000000000000e+00  -5.4624827836494627e-01 -4.2228778135627115e-02 0.0000000000000000e+00  3.5272054533666442e-01 -1.1054812822463815e-02 0.0000000000000000e+00  3.5807675760762764e-01 -3.0983730227872222e-02 0.0000000000000000e+00  9.9214665873623364e-01 -2.4835364213399586e-04 0.0000000000000000e+00  1.1115787708248830e-01 1.1301082513528160e-01 0.0000000000000000e+00  9.1353148455741562e-01 -4.4757120506990690e-02 0.0000000000000000e+00  3.7572828617861009e-01 4.4109670197676906e-02 0.0000000000000000e+00  9.2992412327221730e-01 2.9475167536966877e-02 0.0000000000000000e+00  1.0338964195526627e-01 -2.7737061402064542e-02 0.0000000000000000e+00  2.5435556440832691e-01 5.3483362458367156e-02 0.0000000000000000e+00  4.0774096689119793e-01 -4.7976536176451334e-01 0.0000000000000000e+00  6.7541983572662501e-01 -3.5789940730524356e-01 0.0000000000000000e+00  9.4307903674523674e-01 -4.8834464067378965e-02 0.0000000000000000e+00  3.4910119129671807e-01 1.8281795034857207e-01 0.0000000000000000e+00  3.3145937327732261e-01 -1.3177301290256843e-03 0.0000000000000000e+00  2.7971995796554522e-01 -1.8881096977806691e-01 0.0000000000000000e+00  -6.5268428093876318e-01 -2.5900332988818657e-02 0.0000000000000000e+00  3.6054803765399274e-01 -1.8238175661582409e-01 0.0000000000000000e+00  -2.9040350159000677e-01 -1.4378019534291545e-01 0.0000000000000000e+00  4.0202832249051934e-01 -1.2104196008590475e-02 0.0000000000000000e+00  9.8493192430345056e-01 9.0550882143137362e-03 0.0000000000000000e+00  9.1278366206464390e-01 7.2168237842582791e-02 0.0000000000000000e+00  6.1358935971458783e-01 3.5141105708389986e-01 0.0000000000000000e+00  7.9300680859914763e-01 1.8535731847311501e-01 0.0000000000000000e+00  9.9287425414158603e-01 -1.3797323782987186