<?xml version="1.0"?>
<VTKFile type="UnstructuredGrid"  version="0.1"  >
<UnstructuredGrid>
<Piece  NumberOfPoints="406" NumberOfCells="722">
<Points>
<DataArray  type="Float64"  NumberOfComponents="3"  format="ascii">-6 -2 0  -6 2 0  6 2 0  6 -2 0  -2.8 0 0  -1.2 0 0  -5.500000000001853 -2 0  -5.000000000003705 -2 0  -4.500000000005556 -2 0  -4.000000000007409 -2 0  -3.50000000000926 -2 0  -3.000000000011112 -2 0  -2.500000000012963 -2 0  -2.000000000014814 -2 0  -1.500000000016665 -2 0  -1.000000000018516 -2 0  -0.5000000000203677 -2 0  -2.204547655537681e-11 -2 0  0.4999999999796305 -2 0  0.9999999999814779 -2 0  1.499999999983327 -2 0  1.999999999985175 -2 0  2.499999999987029 -2 0  2.999999999988882 -2 0  3.499999999990735 -2 0  3.999999999992589 -2 0  4.49999999999444 -2 0  4.999999999996293 -2 0  5.499999999998147 -2 0  6 -1.500000000001387 0  6 -1.000000000002774 0  6 -0.5000000000041616 0  6 -5.505595979116151e-12 0  6 0.4999999999958384 0  6 0.9999999999972258 0  6 1.499999999998613 0  5.500000000001853 2 0  5.000000000003705 2 0  4.500000000005556 2 0  4.000000000007409 2 0  3.50000000000926 2 0  3.000000000011112 2 0  2.500000000012963 2 0  2.000000000014814 2 0  1.500000000016665 2 0  1.000000000018516 2 0  0.5000000000203677 2 0  2.204547655537681e-11 2 0  -0.4999999999796305 2 0  -0.9999999999814779 2 0  -1.499999999983327 2 0  -1.999999999985175 2 0  -2.499999999987029 2 0  -2.999999999988882 2 0  -3.499999999990735 2 0  -3.999999999992589 2 0  -4.49999999999444 2 0  -4.999999999996293 2 0  -5.499999999998147 2 0  -6 1.500000000001387 0  -6 1.000000000002774 0  -6 0.5000000000041616 0  -6 5.505595979116151e-12 0  -6 -0.4999999999958384 0  -6 -0.9999999999972258 0  -6 -1.499999999998613 0  -2.776753453941174 -0.1914525314286965 0  -2.708364820523325 -0.3717785376335722 0  -2.598808598538216 -0.5304981265911284 0  -2.454451797386757 -0.65838709271366 0  -2.283683909636528 -0.748012994147384 0  -2.096429344207466 -0.7941670992780535 0  -1.903570655798842 -0.7941670992788195 0  -1.716316090368095 -0.7480129941491368 0  -1.545548202616307 -0.6583870927157747 0  -1.401191401463757 -0.530498126593356 0  -1.291635179477527 -0.371778537635196 0  -1.223246546059047 -0.1914525314295925 0  -1.223246546058803 0.1914525314286035 0  -1.291635179476594 0.3717785376334188 0  -1.401191401461634 0.5304981265909601 0  -1.545548202612898 0.6583870927134221 0  -1.716316090363093 0.7480129941472402 0  -1.903570655792394 0.7941670992780367 0  -2.096429344201276 0.7941670992788055 0  -2.283683909631911 0.7480129941491347 0  -2.454451797383697 0.6583870927157729 0  -2.598808598536385 0.530498126593196 0  -2.70836482052258 0.3717785376349917 0  -2.776753453940975 0.1914525314295042 0  0.4588466633941945 0.2704149791022056 0  -4.424312812173863 0.2760319703992994 0  -3.803977598762586 -0.6841584599595646 0  -0.1330968762779425 -0.6798763971615133 0  2.451109587541276 3.169800318630399e-13 0  -3.563610936250569 0.5929994091167295 0  4.204753319582647 0.2820669554523581 0  -0.4390897559348154 0.6178095532273566 0  -3.041446812595122 1.175550440315544 0  -0.9622132806516797 1.132103015222783 0  1.069493318942931 -0.773608156980569 0  -4.924330687080279 -0.7127064269610045 0  -3.024693497948964 -1.195179289656404 0  -0.9648749555625579 -1.256854520022574 0  -3.443624282349383 -0.2044158249759613 0  -0.5611500783757608 -0.1747080110423833 0  1.60270880116926 0.7487034276124258 0  3.488352576142236 -0.8228939860777884 0  4.816375011670135 -0.8163750116689444 0  3.243628045085357 0.8578172796997985 0  -4.228632884234073 1.228069101636678 0  -2.365220384435482 -1.356128547810356 0  -1.637465979486354 1.3571687267915 0  -1.642380978561139 -1.359365080147485 0  -2.362988915989869 1.356737096243695 0  -5.134120367293631 0.8356299802910161 0  2.077496878467794 -0.9514080034522553 0  4.960859291178299 0.9608592911785537 0  0.3293120056474302 1.148965409695154 0  -5.157560560414062 0.09447106214747865 0  -3.14779387667392 -0.6330563038825547 0  -3.148134455585257 0.4354299640428653 0  -0.8464439673630421 0.4159277415926296 0  -0.9918125625721008 -0.7191748422889824 0  -4.355349213295776 -1.234510499778242 0  1.582074659164868 -0.06850205959954866 0  2.400584045214166 1.204278622181321 0  5.102831660739063 0.03453404176596848 0  4.083259768981113 1.154272958349666 0  -3.992394834362243 -0.1621022234411988 0  0.4290302718942113 -1.225465289645401 0  -3.681487986394671 -1.310544246656267 0  -3.640289698916164 1.187023654838123 0  0.468851680921228 -0.447055967952278 0  3.315209904217932 0.05667935655546536 0  -2.541160649745046 -1.046980928586996 0  -1.45196684542695 1.044189935346116 0  -2.000844595891861 -1.207983108473125 0  -1.453092202970521 -1.061139264918894 0  -2.000050543938391 1.207806685704176 0  -2.548033154566413 1.04418993534851 0  4.13054585796652 -1.232871249381608 0  -0.3301617095463629 1.221692405319566 0  -0.2880491989587189 -1.359626628407983 0  -0.0758941643813178 0.132275811829787 0  2.826389221580753 -1.233168480096227 0  -2.922070412327736 0.7575752117792038 0  1.003070890178416 1.271347915034201 0  -5.319521816151902 -1.310543894393663 0  -1.070407062963812 0.7877698545098388 0  -4.562499863038985 -0.2302396981426722 0  -3.164226661545047 0.07179577787350272 0  -0.9091377812900333 0.132454654016971 0  4.116029045943655 -0.4851826871817362 0  5.316659189209927 -1.316659189208741 0  -0.9498828454673396 -0.4149758979014553 0  -4.037769805263969 0.6896174350675625 0  1.431664772855882 -1.327784137638992 0  -3.646693623568034 0.1600006358878044 0  -2.878371345483476 -0.7910345833001061 0  1.062603041385242 0.2894765870627741 0  -0.547955103783681 0.1635272504420374 0  -4.804809838419659 1.41016301576038 0  -3.042895319571192 -0.3694931303482478 0  -4.59252578392403 0.792267765362792 0  2.823271260730033 -0.5472430318427347 0  -4.28575390662405 -0.7521491832384866 0  -0.5524005545121191 -0.9037367558558163 0  1.815219025072439 1.388812135783969 0  -1.288398729718543 -0.8178399475601057 0  -5.424388493366639 1.35375165044146 0  -2.256991952837567 -1.049538527273222 0  -1.739586738723494 -1.052327527873255 0  -1.738827359988536 1.050180627239116 0  -2.257795730428802 1.049701225145305 0  -0.62222340523776 -0.5483611729237363 0  2.065188519029698 0.5424877383589943 0  0.1055865106318892 0.7347782870471022 0  1.013082573993895 -0.2061877611231605 0  -5.428323520618333 -0.4386412085227075 0  5.374041502384443 -0.5304401760993408 0  3.435185060219232 -1.377658617395091 0  -3.302377238490527 0.8841390072780534 0  -0.9902123298072768 -0.124175295282554 0  0.7186958547669859 0.8724503317343631 0  2.941237214953417 1.390391532351976 0  4.708037787864423 -1.340276032051348 0  5.395029680982659 1.395029680983341 0  3.591022587550188 1.348260650408605 0  2.759385971589342 0.4857447325740718 0  -0.6832705231418494 0.8879387563573758 0  5.437781298507145 0.5981501503262471 0  -2.698603003287285 1.617130043745112 0  -3.463358189947519 -1.013588318179017 0  1.710866040171871 -0.6978716337870808 0  3.642182982762737 0.4555704362064124 0  -2.699802128031161 -1.618310703146212 0  -1.3020054856637 1.619819977935582 0  -2.000000000004996 -1.566396763829867 0  -1.999999999994794 1.566396763830688 0  -1.247812462071684 -1.595232739507426 0  4.59429106759859 1.420052135572917 0  0.9448382581152466 -1.440259145469251 0  -0.116376100998861 -0.2606209011258676 0  -4.774521510507792 0.4245390872783272 0  -2.983910172370106 -0.1208000607277856 0  -3.353983741142061 1.576062863985777 0  -5.473352579109997 0.4917619255280954 0  -4.828650470275986 -1.493148538517745 0  4.639973657165532 -0.2833178611094909 0  -2.660279445404468 0.7699932347178977 0  -1.335045190775955 0.7744876666923373 0  -3.395669172689978 0.2584951122361346 0  2.279110606119369 -1.465899541383697 0  4.734317729212562 0.4520963557364723 0  -0.6334913028224612 1.584213953723378 0  2.121854101359879 -0.4289611127787379 0  -3.474459720833238 -0.4977581316675216 0  -1.066539898844178 0.3411379476537602 0  -3.361849707555382 -1.611428512420182 0  -4.099039818938317 0.3306400369415774 0  -2.935324777364672 0.354721898811665 0  -3.973578595052027 1.482940358734671 0  3.784450148635689 -0.0702780807301525 0  -1.191348122671212 -0.5614501189722798 0  -2.838672605956353 -0.5493179047027598 0  -1.184983441257359 0.5617520886612424 0  -2.811184099847449 0.5574240755049175 0  0.2702752249355158 -0.8003643570420809 0  -0.6945947797857237 -1.593893965175195 0  0.001175881878679056 1.504521009023778 0  0.6072931735145096 1.501814722697789 0  -3.991896293645949 -1.047264188412552 0  -3.734097395159253 -0.3261671578666079 0  -5.539652387691843 -0.8857154182585802 0  -4.395061924111849 1.563293728588296 0  0.2258327611651416 -0.08745142624872881 0  -3.774816634825771 0.8676973328379478 0  2.208484493569073 1.6256686312487 0  0.1309939514660535 -1.566169703482512 0  -5.551414360955331 0.9459842275970113 0  -4.04734138658365 -1.51163984963472 0  -4.947145019546805 -0.3299925153029702 0  4.320410447198621 0.6970857582435144 0  -4.707557346727139 -1.000565649857444 0  1.353711468973986 1.582551234446199 0  1.674156483558973 0.3266252271732694 0  -4.039105552973997 -0.4537604746027087 0  0.01051727619263377 -1.088858357362194 0  -0.2234942609176301 0.8619127912343982 0  -2.95903482691863 0.1219373374385197 0  -4.682467695920681 0.0804575682243254 0  5.535750224195656 -0.1525732643419722 0  -4.290083947414376 -0.0005258314026840717 0  1.136102562417988 0.7655312464039168 0  -2.816589394567214 0.9927597419785312 0  -2.645374456162409 -0.7645902451387543 0  4.18414576655837 1.624276131878667 0  0.7127337088822223 -0.9006358935856398 0  1.972418102153911 0.9727040774616764 0  -2.42199174813501 0.8591219219254587 0  -2.418604734200992 -0.8552987735117754 0  -5.573597213364169 -0.03612430678117123 0  2.024792870869397 0.05574071630590883 0  -1.578875191508968 0.861424470724936 0  -1.54706008231699 -0.8630049102346303 0  3.848662181064435 -1.569601980075533 0  -2.000000000003871 -0.9746445732264465 0  -1.99999999
[...]
<PointData  Vectors="f_22"> 
<DataArray  type="Float64"  Name="f_22"  NumberOfComponents="3" format="ascii">0.0000000000000000e+00 0.0000000000000000e+00 0.0000000000000000e+00  0.0000000000000000e+00 0.0000000000000000e+00 0.0000000000000000e+00  0.0000000000000000e+00 0.0000000000000000e+00 0.0000000000000000e+00  0.0000000000000000e+00 0.0000000000000000e+00 0.0000000000000000e+00  9.9999995808252551e-01 0.0000000000000000e+00 0.0000000000000000e+00  9.9999995808252551e-01 0.0000000000000000e+00 0.0000000000000000e+00  0.0000000000000000e+00 0.0000000000000000e+00 0.0000000000000000e+00  0.0000000000000000e+00 0.0000000000000000e+00 0.0000000000000000e+00  0.0000000000000000e+00 0.0000000000000000e+00 0.0000000000000000e+00  0.0000000000000000e+00 0.0000000000000000e+00 0.0000000000000000e+00  0.0000000000000000e+00 0.0000000000000000e+00 0.0000000000000000e+00  0.0000000000000000e+00 0.0000000000000000e+00 0.0000000000000000e+00  0.0000000000000000e+00 0.0000000000000000e+00 0.0000000000000000e+00  0.0000000000000000e+00 0.0000000000000000e+00 0.0000000000000000e+00  0.0000000000000000e+00 0.0000000000000000e+00 0.0000000000000000e+00  0.0000000000000000e+00 0.0000000000000000e+00 0.0000000000000000e+00  0.0000000000000000e+00 0.0000000000000000e+00 0.0000000000000000e+00  0.0000000000000000e+00 0.0000000000000000e+00 0.0000000000000000e+00  0.0000000000000000e+00 0.0000000000000000e+00 0.0000000000000000e+00  0.0000000000000000e+00 0.0000000000000000e+00 0.0000000000000000e+00  0.0000000000000000e+00 0.0000000000000000e+00 0.0000000000000000e+00  0.0000000000000000e+00 0.0000000000000000e+00 0.0000000000000000e+00  0.0000000000000000e+00 0.0000000000000000e+00 0.0000000000000000e+00  0.0000000000000000e+00 0.0000000000000000e+00 0.0000000000000000e+00  0.0000000000000000e+00 0.0000000000000000e+00 0.0000000000000000e+00  0.0000000000000000e+00 0.0000000000000000e+00 0.0000000000000000e+00  0.0000000000000000e+00 0.0000000000000000e+00 0.0000000000000000e+00  0.0000000000000000e+00 0.0000000000000000e+00 0.0000000000000000e+00  0.0000000000000000e+00 0.0000000000000000e+00 0.0000000000000000e+00  3.4448736677144615e-01 -2.0330821262673978e-04 0.0000000000000000e+00  5.7493009358554759e-01 -4.7466682559028461e-04 0.0000000000000000e+00  7.0737812297388358e-01 -4.4385109104658703e-04 0.0000000000000000e+00  7.4989915078727232e-01 -3.3128010869962284e-05 0.0000000000000000e+00  7.0732828627391375e-01 3.9500908711798756e-04 0.0000000000000000e+00  5.7483248140044252e-01 4.7872025413933438e-04 0.0000000000000000e+00  3.4429361209662507e-01 2.1011999714498297e-04 0.0000000000000000e+00  0.0000000000000000e+00 0.0000000000000000e+00 0.0000000000000000e+00  0.0000000000000000e+00 0.0000000000000000e+00 0.0000000000000000e+00  0.0000000000000000e+00 0.0000000000000000e+00 0.0000000000000000e+00  0.0000000000000000e+00 0.0000000000000000e+00 0.0000000000000000e+00  0.0000000000000000e+00 0.0000000000000000e+00 0.0000000000000000e+00  0.0000000000000000e+00 0.0000000000000000e+00 0.0000000000000000e+00  0.0000000000000000e+00 0.0000000000000000e+00 0.0000000000000000e+00  0.0000000000000000e+00 0.0000000000000000e+00 0.0000000000000000e+00  0.0000000000000000e+00 0.0000000000000000e+00 0.0000000000000000e+00  0.0000000000000000e+00 0.0000000000000000e+00 0.0000000000000000e+00  0.0000000000000000e+00 0.0000000000000000e+00 0.0000000000000000e+00  0.0000000000000000e+00 0.0000000000000000e+00 0.0000000000000000e+00  0.0000000000000000e+00 0.0000000000000000e+00 0.0000000000000000e+00  0.0000000000000000e+00 0.0000000000000000e+00 0.0000000000000000e+00  0.0000000000000000e+00 0.0000000000000000e+00 0.0000000000000000e+00  0.0000000000000000e+00 0.0000000000000000e+00 0.0000000000000000e+00  0.0000000000000000e+00 0.0000000000000000e+00 0.0000000000000000e+00  0.0000000000000000e+00 0.0000000000000000e+00 0.0000000000000000e+00  0.0000000000000000e+00 0.0000000000000000e+00 0.0000000000000000e+00  0.0000000000000000e+00 0.0000000000000000e+00 0.0000000000000000e+00  0.0000000000000000e+00 0.0000000000000000e+00 0.0000000000000000e+00  0.0000000000000000e+00 0.0000000000000000e+00 0.0000000000000000e+00  0.0000000000000000e+00 0.0000000000000000e+00 0.0000000000000000e+00  3.4249478067327754e-01 -7.1949695554089752e-04 0.0000000000000000e+00  5.7383617904194206e-01 -1.2592403519309588e-03 0.0000000000000000e+00  7.0882475048433391e-01 -1.0140920973617761e-03 0.0000000000000000e+00  7.5295427241608603e-01 -3.0717985117215013e-05 0.0000000000000000e+00  7.0945964403886830e-01 1.1250966594250778e-03 0.0000000000000000e+00  5.7405986166059775e-01 1.3234049514624896e-03 0.0000000000000000e+00  3.4260724229322309e-01 7.5023178949440786e-04 0.0000000000000000e+00  9.9999995808252551e-01 0.0000000000000000e+00 0.0000000000000000e+00  9.9999995808252551e-01 0.0000000000000000e+00 0.0000000000000000e+00  9.9999995808252551e-01 0.0000000000000000e+00 0.0000000000000000e+00  9.9999995808252551e-01 0.0000000000000000e+00 0.0000000000000000e+00  9.9999995808252551e-01 0.0000000000000000e+00 0.0000000000000000e+00  9.9999995808252551e-01 0.0000000000000000e+00 0.0000000000000000e+00  9.9999995808252551e-01 0.0000000000000000e+00 0.0000000000000000e+00  9.9999995808252551e-01 0.0000000000000000e+00 0.0000000000000000e+00  9.9999995808252551e-01 0.0000000000000000e+00 0.0000000000000000e+00  9.9999995808252551e-01 0.0000000000000000e+00 0.0000000000000000e+00  9.9999995808252551e-01 0.0000000000000000e+00 0.0000000000000000e+00  9.9999995808252551e-01 0.0000000000000000e+00 0.0000000000000000e+00  9.9999995808252551e-01 0.0000000000000000e+00 0.0000000000000000e+00  9.9999995808252551e-01 0.0000000000000000e+00 0.0000000000000000e+00  9.9999995808252551e-01 0.0000000000000000e+00 0.0000000000000000e+00  9.9999995808252551e-01 0.0000000000000000e+00 0.0000000000000000e+00  9.9999995808252551e-01 0.0000000000000000e+00 0.0000000000000000e+00  9.9999995808252551e-01 0.0000000000000000e+00 0.0000000000000000e+00  9.9999995808252551e-01 0.0000000000000000e+00 0.0000000000000000e+00  9.9999995808252551e-01 0.0000000000000000e+00 0.0000000000000000e+00  9.9999995808252551e-01 0.0000000000000000e+00 0.0000000000000000e+00  9.9999995808252551e-01 0.0000000000000000e+00 0.0000000000000000e+00  9.9999995808252551e-01 0.0000000000000000e+00 0.0000000000000000e+00  9.9999995808252551e-01 0.0000000000000000e+00 0.0000000000000000e+00  8.4148189198787504e-01 2.1194343839811711e-02 0.0000000000000000e+00  7.5064372133401969e-01 -6.7177191096221903e-03 0.0000000000000000e+00  6.8124093297248800e-01 3.9970304699543012e-02 0.0000000000000000e+00  7.3141639615350329e-01 -6.6993022270245506e-02 0.0000000000000000e+00  7.7741548786022230e-01 1.6223202227644600e-05 0.0000000000000000e+00  7.1797265055622661e-01 -5.8643438539774329e-02 0.0000000000000000e+00  7.4085575196452980e-01 1.6405613168536150e-03 0.0000000000000000e+00  7.9232263195997699e-01 7.1427932067086655e-02 0.0000000000000000e+00  4.0986490250765506e-01 -1.1343874092119123e-01 0.0000000000000000e+00  3.8697225376214628e-01 1.0886840421314936e-01 0.0000000000000000e+00  6.5145324275782668e-01 -2.9969589557492213e-02 0.0000000000000000e+00  6.6440451436959802e-01 5.2075680804159197e-03 0.0000000000000000e+00  3.9552607899104703e-01 1.1274469706630870e-01 0.0000000000000000e+00  2.6864015235860222e-01 -9.6268959155180606e-02 0.0000000000000000e+00  8.2298291732406281e-01 3.1918585469356137e-02 0.0000000000000000e+00  9.5993136040842197e-01 -1.7408102556989984e-02 0.0000000000000000e+00  6.5762960815629423e-01 2.0441004808485992e-02 0.0000000000000000e+00  6.3180597025542717e-01 -5.1980652021364213e-03 0.0000000000000000e+00  6.3444278744742266e-01 -1.7615050969417194e-03 0.0000000000000000e+00  6.2027498442647533e-01 6.1317978239052214e-03 0.0000000000000000e+00  4.6910525038849626e-01 -1.4328582533961959e-02 0.0000000000000000e+00  1.3638702828543581e-01 1.1744848322144372e-01 0.0000000000000000e+00  8.6974989773404274e-02 2.7438196426745581e-02 0.0000000000000000e+00  8.4751930499442282e-02 -2.6183612598550565e-02 0.0000000000000000e+00  1.3546018192023568e-01 -1.1716542570537562e-01 0.0000000000000000e+00  6.2886026663539363e-01 -3.5239855682134757e-03 0.0000000000000000e+00  5.8184605699737268e-01 -1.3912704152697115e-02 0.0000000000000000e+00  5.8816008844916656e-01 1.4059799167950209e-03 0.0000000000000000e+00  4.4975995597314994e-01 4.7432177856706829e-02 0.0000000000000000e+00  7.5393353835770793e-01 -5.0933396992882600e-04 0.0000000000000000e+00  7.2577778955693695e-01 1.2587052468714602e-01 0.0000000000000000e+00  8.1288336938596173e-01 -1.0326149805318033e-01 0.0000000000000000e+00  9.4189594763153661e-01 3.6440491375006254e-02 0.0000000000000000e+00  8.0103020413757031e-01 -8.2382009504629233e-02 0.0000000000000000e+00  4.6870922560166550e-01 1.1435149407175986e-02 0.0000000000000000e+00  8.0241618052894359e-01 -2.6859115893259258e-03 0.0000000000000000e+00  4.7668126485924822e-01 8.3961122749983495e-03 0.0000000000000000e+00  7.5114077077775254e-01 6.4642652769768993e-05 0.0000000000000000e+00  5.1110561314238234e-01 2.5420331788006336e-03 0.0000000000000000e+00  7.7680011164957652e-01 9.2099836783264104e-03 0.0000000000000000e+00  4.1062898072366971e-01 -3.9730324552150871e-02 0.0000000000000000e+00  4.0694102214196431e-01 3.2389871124610781e-02 0.0000000000000000e+00  4.6703378834772813e-01 -4.2190976297880552e-02 0.0000000000000000e+00  7.9479778944517687e-01 -3.2868317350142950e-02 0.0000000000000000e+00  7.6252774422556979e-01 6.7730687528790511e-04 0.0000000000000000e+00  3.9729047768066822e-01 1.9852019482486746e-01 0.0000000000000000e+00  4.6734039086408186e-01 9.1204395191603130e-02 0.0000000000000000e+00  2.0040007601083221e-01 6.0592309613021401e-02 0.0000000000000000e+00  4.4380635093043674e-01 -9.0331891365669117e-02 0.0000000000000000e+00  2.0053950479878857e-01 -6.0317314543065846e-02 0.0000000000000000e+00  4.0107395891426595e-01 -1.9889403298664421e-01 0.0000000000000000e+00  4.7648953945919936e-01 -2.1950115729015341e-03 0.0000000000000000e+00  3.6218808926397139e-01 7.4784077447267630e-02 0.0000000000000000e+00  2.7469360085065192e-01 -5.8909547349933526e-02 0.0000000000000000e+00  9.1191882780812195e-01 1.4151731614184719e-02 0.0000000000000000e+00  4.6804022093499176e-01 -5.8230511258416887e-03 0.0000000000000000e+00  6.6123840060557537e-01 -1.8138337777893859e-01 0.0000000000000000e+00  4.1137098948505024e-01 2.3083398881892987e-02 0.0000000000000000e+00  4.4025382983299710e-01 1.6816281402406983e-03 0.0000000000000000e+00  7.5380909200186230e-01 9.1349828480425929e-02 0.0000000000000000e+00  7.5250981030668307e-01 4.4021127531054579e-03 0.0000000000000000e+00  8.9381093656064037e-01 -1.9079207955557842e-02 0.0000000000000000e+00  9.9303623291236809e-01 5.8964852659195979e-03 0.0000000000000000e+00  7.1294462293543137e-01 -2.7347218759207919e-03 0.0000000000000000e+00  4.3978918015974716e-01 -5.4889040604680958e-04 0.0000000000000000e+00  9.5742640253189804e-01 -2.9743941991561277e-02 0.0000000000000000e+00  6.7587874274829540e-01 -2.6124856388404540e-02 0.0000000000000000e+00  3.9698228704170319e-01 -1.4590145345073297e-02 0.0000000000000000e+00  8.0347753425119062e-01 -1.7110253016039297e-02 0.0000000000000000e+00  6.3748793734287024e-01 1.9046970347197728e-01 0.0000000000000000e+00  8.0176498243023808e-01 1.5507790894427040e-02 0.0000000000000000e+00  9.6006190798371616e-01 1.6452361282305542e-02 0.0000000000000000e+00  3.8679939943989100e-01 -3.5363357686651444e-03 0.0000000000000000e+00  8.5835609517658140e-01 1.0785215526156579e-01 0.0000000000000000e+00  6.4235628075037654e-01 -9.7638192137613402e-03 0.0000000000000000e+00  7.0749364426973060e-01 -7.4493822621294623e-03 0.0000000000000000e+00  6.5545200353472544e-01 1.7098864325659931e-02 0.0000000000000000e+00  6.0107806090550742e-01 -9.6659871374728368e-02 0.0000000000000000e+00  3.7580853827700345e-01 9.2884977245504454e-03 0.0000000000000000e+00  7.6151154422015255e-01 -8.6116052855532227e-02 0.0000000000000000e+00  4.1909303372472367e-01 -1.3063905113692973e-03 0.0000000000000000e+00  3.7344666294024170e-01 1.4485857085955531e-01 0.0000000000000000e+00  4.3392620964099066e-01 -3.6230701696926715e-02 0.0000000000000000e+00  4.3746763510675352e-01 3.6645573548968191e-02 0.0000000000000000e+00  3.7314173284996055e-01 -1.4513631064691712e-01 0.0000000000000000e+00  8.5285838922279511e-01 -6.3764336356648563e-02 0.0000000000000000e+00  7.1628864986412288e-01 1.2828357536828929e-02 0.0000000000000000e+00  6.8921053098861085e-01 5.9524649282593795e-02 0.0000000000000000e+00  8.1744030827880776e-01 -1.1705198948402972e-02 0.0000000000000000e+00  7.2015795331407939e-01 1.4767103473657325e-03 0.0000000000000000e+00  7.0232224449424330e-01 -8.8106406727808781e-04 0.0000000000000000e+00  4.0228238196176669e-01 -2.6958580968641484e-03 0.0000000000000000e+00  5.9945655018073341e-01 -9.8331042158977006e-02 0.0000000000000000e+00  9.9681437094143888e-01 -3.3038944565371713e-03 0.0000000000000000e+00  6.0813575876454085e-01 3.9258410685402936e-02 0.0000000000000000e+00  3.9219057415481284e-01 3.8328393894476068e-03 0.0000000000000000e+00  4.2664661765318979e-01 -1.0516247753265390e-03 0.0000000000000000e+00  4.0019642830118507e-01 3.9685323949905862e-04 0.0000000000000000e+00  4.1865563002253431e-01 2.6383680269635320e-03 0.0000000000000000e+00  7.2120670687088784e-01 7.3329510718431251e-03 0.0000000000000000e+00  6.2023989014144509e-01 1.0157888054584417e-01 0.0000000000000000e+00  6.8897187369376744e-01 8.1232537389867420e-04 0.0000000000000000e+00  1.0978359307612925e-01 -5.0186592692140743e-02 0.0000000000000000e+00  5.4227555459395271e-01 6.9581597879743176e-02 0.0000000000000000e+00  6.7473962018005740e-01 -1.8606931890345502e-02 0.0000000000000000e+00  7.2024948380231335e-01 3.7186758808176001e-03 0.0000000000000000e+00  1.0958498875579013e-01 4.9886238279705349e-02 0.0000000000000000e+00  -1.5582051074684250e-02 3.0856618265715008e-02 0.0000000000000000e+00  -2.3358706742242261e-02 3.4824619614030543e-02 0.0000000000000000e+00  -2.3427620369441203e-02 -3.4789790144850771e-02 0.0000000000000000e+00  1.0382194228343877e-03 -3.6601752741238697e-02 0.0000000000000000e+00  3.8580951825659787e-01 9.4745389215376515e-04 0.0000000000000000e+00  3.2020954554341885e-01 -1.6645171224422505e-02 0.0000000000000000e+00  8.9519623119149438e-01 -2.7988847944228516e-02 0.0000000000000000e+00  7.2563608373342570e-01 -5.0429821027867389e-03 0.0000000000000000e+00  9.4095900247176267e-01 3.9454385197469521e-02 0.0000000000000000e+00  2.3737841569193679e-01 -2.6299312490535420e-02 0.0000000000000000e+00  7.1099384401265597e-01 -1.4009943796970909e-03 0.0000000000000000e+00  3.4142615886203015e-01 2.8345972703435040e-03 0.0000000000000000e+00  7.3883938831402540e-01 -1.1630069991638847e-03 0.0000000000000000e+00  6.6082048090716916e-01 -2.0972597194338838e-01 0.0000000000000000e+00  8.2074172528057499e-01 7.2649972111456823e-02 0.0000000000000000e+00  8.2120454874533610e-01 -4.3213763129511168e-02 0.0000000000000000e+00  3.4319307284513639e-01 -5.1401669371675300e-03 0.0000000000000000e+00  7.1670206778598489e-01 1.5054003676500734e-03 0.0000000000000000e+00  1.0365225223286001e-01 3.9927632116531768e-02 0.0000000000000000e+00  7.4140640882090414e-01 -1.0575500583564743e-02 0.0000000000000000e+00  7.5355226978472778e-01 6.2678320404994547e-02 0.0000000000000000e+00  9.8626530105578492e-01 1.2532788975854295e-02 0.0000000000000000e+00  2.1984276914398623e-01 2.2198877442575756e-02 0.0000000000000000e+00  7.5319878244926752e-01 -1.4401886100307727e-02 0.0000000000000000e+00  8.9145229901764089e-01 -1.1389602076375577e-01 0.0000000000000000e+00  3.3068915809176030e-01 -1.2918098186383785e-02 0.0000000000000000e+00  7.5743553530651975e-01 -6.2778154805705417e-04 0.0000000000000000e+00  9.4726192205818005e-01 -3.4667182235769284e-02 0.0000000000000000e+00  8.1012112195883712e-01 1.7053606410658217e-01 0.0000000000000000e+00  9.4571787511406580e-01 3.5587498954381819e-02 0.0000000000000000e+00  8.1162289516954589e-01 -1.7371569299865564e-01 0.0000000000000000e+00  6.4895608061586418e-01 -5.4457614355745990e-02 0.0000000000000000e+00  8.9425459086091411e-02 -3.9990037592929926e-02 0.0000000000000000e+00  2.2263903719328770e-01 3.2713141102079325e-02 0.0000000000000000e+00  2.7045851199131482e-01 1.9039079036634893e-02 0.0000000000000000e+00  5.4546467900492468e-01 2.6611819685923830e-02 0.0000000000000000e+00  7.7359143944601994e-01 2.8197737589633991e-02 0.0000000000000000e+00  6.1336306042052313e-01 1.7642254031475968e-03 0.0000000000000000e+00  2.9648335970324580e-01 -4.6871740813850199e-03 0.0000000000000000e+00  8.8612916921328833e-01 -8.0869418403176178e-03 0.0000000000000000e+00  6.1561666748371913e-01 -4.3192103046397493e-02 0.0000000000000000e+00  2.5343411412251199e-01 2.9010815714660132e-03 0.0000000000000000e+00  2.0230396193280029e-01 -2.3380904523501101e-02 0.0000000000000000e+00  5.9296307577811058e-01 -1.6878313589835073e-03 0.0000000000000000e+00  3.1765956803921686e-01 1.0327261796571601e-02 0.0000000000000000e+00  7.3748065053375134e-01 2.9259465008407886e-03 0.0000000000000000e+00  6.6703895934191049e-01 2.6820377736242107e-03 0.0000000000000000e+00  5.7196624554299480e-01 7.6079256123752987e-03 0.0000000000000000e+00  2.5940183299837466e-01 7.4342039869211059e-03 0.0000000000000000e+00  7.7129139956635051e-01 1.1564143249720030e-02 0.0000000000000000e+00  7.3455508323147212e-01 2.0808818407689566e-02 0.0000000000000000e+00  4.7340554984041544e-01 -6.4546758839816393e-02 0.0000000000000000e+00  6.2192978624724038e-01 7.9574409864428694e-02 0.0000000000000000e+00  9.4924883234459456e-01 -4.0411178830549802e-02 0.0000000000000000e+00  7.5914436797190232e-01 -1.1425640870318932e-03 0.0000000000000000e+00  7.4646462297121519e-01 -2.8112385229952017e-04 0.0000000000000000e+00  7.6963344183729243e-01 2.0690503043386738e-05 0.0000000000000000e+00  6.5415849303307150e-01 2.8616132772347681e-02 0.0000000000000000e+00  4.8803691905262880e-01 -1.8367947931353285e-01 0.0000000000000000e+00  6.6835323751771158e-01 2.0744803968132566e-01 0.0000000000000000e+00  2.6886322157887710e-01 6.2230393563086840e-04 0.0000000000000000e+00  5.9421872276735754e-01 -3.9496620941053218e-02 0.0000000000000000e+00  5.7242890926189394e-01 1.4868609661406478e-02 0.0000000000000000e+00  6.0864449102077545e-01 -1.7232818582843695e-01 0.0000000000000000e+00  6.1564224591568606e-01 1.6936524969685035e-01 0.0000000000000000e+00  7.5322773754275252e-01 6.0812200860916129e-05 0.0000000000000000e+00  7.8758286415955292e-01 1.6653481370484289e-03 0.0000000000000000e+00  7.5862060494366690e-01 6.3426259153024883e-02 0.0000000000000000e+00  7.4994444217386191e-01 -6.8212644103970516e-02 0.0000000000000000e+00  2.9997487199008294e-01 -1.0829471727860898e-03 0.0000000000000000e+00  5.3401059810486196e-01 3.5715594419054246e-02 0.0000000000000000e+00  5.3398458539967741e-01 -3.5734979781383930e-02 0.0000000000000000e+00  2.8596555204676793e-01 -1.3209193870012492e-01 0.0000000000000000e+00  5.9383747678180687e-01 4.4152436728459570e-03 0.0000000000000000e+00  5.2957162469984376e-01 1.0926023012251279e-01 0.0000000000000000e+00  8.5216683612841326e-01 -2.7010995772028612e-03 0.0000000000000000e+00  5.7946121795796124e-01 6.6386467140060418e-04 0.0000000000000000e+00  5.9855584723190891e-01 -7.1802580518350522e-04 0.0000000000000000e+00  5.7625323347411728e-01 7.8113816872164982e-03 0.0000000000000000e+00  2.0369104848846400e-01 8.4943889126504191e-02 0.0000000000000000e+00  4.9206298188786729e-01 -1.1155285984313358e-01 0.0000000000000000e+00  6.1690344638469741e-01 -1.0281749375110633e-02 0.0000000000000000e+00  6.2530956952035521e-01 -2.6296838165540256e-03 0.0000000000000000e+00  2.6998490940445558e-01 -6.8529093857300075e-04 0.0000000000000000e+00  2.5453285848179402e-01 -4.6022061759301040e-03 0.0000000000000000e+00  8.0580588036658396e-01 -4.3514426008798894e-02