<?xml version="1.0"?>
<VTKFile type="UnstructuredGrid"  version="0.1"  >
<UnstructuredGrid>
<Piece  NumberOfPoints="622" NumberOfCells="1116">
<Points>
<DataArray  type="Float64"  NumberOfComponents="3"  format="ascii">-6 -2 0  -6 2 0  6 2 0  6 -2 0  -2.8 0 0  -1.2 0 0  -5.500000000001853 -2 0  -5.000000000003705 -2 0  -4.500000000005556 -2 0  -4.000000000007409 -2 0  -3.50000000000926 -2 0  -3.000000000011112 -2 0  -2.500000000012963 -2 0  -2.000000000014814 -2 0  -1.500000000016665 -2 0  -1.000000000018516 -2 0  -0.5000000000203677 -2 0  -2.204547655537681e-11 -2 0  0.4999999999796305 -2 0  0.9999999999814779 -2 0  1.499999999983327 -2 0  1.999999999985175 -2 0  2.499999999987029 -2 0  2.999999999988882 -2 0  3.499999999990735 -2 0  3.999999999992589 -2 0  4.49999999999444 -2 0  4.999999999996293 -2 0  5.499999999998147 -2 0  6 -1.500000000001387 0  6 -1.000000000002774 0  6 -0.5000000000041616 0  6 -5.505595979116151e-12 0  6 0.4999999999958384 0  6 0.9999999999972258 0  6 1.499999999998613 0  5.500000000001853 2 0  5.000000000003705 2 0  4.500000000005556 2 0  4.000000000007409 2 0  3.50000000000926 2 0  3.000000000011112 2 0  2.500000000012963 2 0  2.000000000014814 2 0  1.500000000016665 2 0  1.000000000018516 2 0  0.5000000000203677 2 0  2.204547655537681e-11 2 0  -0.4999999999796305 2 0  -0.9999999999814779 2 0  -1.499999999983327 2 0  -1.999999999985175 2 0  -2.499999999987029 2 0  -2.999999999988882 2 0  -3.499999999990735 2 0  -3.999999999992589 2 0  -4.49999999999444 2 0  -4.999999999996293 2 0  -5.499999999998147 2 0  -6 1.500000000001387 0  -6 1.000000000002774 0  -6 0.5000000000041616 0  -6 5.505595979116151e-12 0  -6 -0.4999999999958384 0  -6 -0.9999999999972258 0  -6 -1.499999999998613 0  -2.796147781337886 -0.07841371226233997 0  -2.784628224322852 -0.1560722576115546 0  -2.765552268586196 -0.2322277418021561 0  -2.739103626009626 -0.30614674589063 0  -2.705537011479457 -0.3771173894593519 0  -2.665175689843037 -0.4444561864141836 0  -2.618408362691456 -0.5075146273293722 0  -2.565685424950688 -0.5656854249477874 0  -2.507514627332613 -0.6184083626887972 0  -2.444456186417533 -0.6651756898407991 0  -2.377117389462776 -0.7055370114776264 0  -2.306146745894456 -0.7391036260080417 0  -2.232227741806235 -0.7655522685849585 0  -2.15607225761588 -0.784628224321992 0  -2.078413712266957 -0.7961477813374315 0  -2.000000000003407 -0.7999999999999998 0  -1.921586287739523 -0.7961477813380696 0  -1.843927742389945 -0.7846282243231506 0  -1.767772258198879 -0.7655522685865098 0  -1.693853254109962 -0.7391036260098718 0  -1.622882610540873 -0.7055370114795768 0  -1.555543813585629 -0.6651756898429115 0  -1.49248537267008 -0.6184083626910072 0  -1.434314575051535 -0.5656854249500112 0  -1.381591637310384 -0.5075146273316149 0  -1.334824310158267 -0.4444561864161359 0  -1.294462988521423 -0.3771173894609975 0  -1.260896373990956 -0.3061467458920351 0  -1.234447731414138 -0.2322277418032578 0  -1.215371775677287 -0.156072257612254 0  -1.203852218662147 -0.07841371226267954 0  -1.203852218662115 0.07841371226235888 0  -1.215371775677132 0.156072257611478 0  -1.234447731413795 0.232227741802127 0  -1.260896373990353 0.3061467458905811 0  -1.294462988520456 0.3771173894591898 0  -1.334824310156812 0.444456186413959 0  -1.381591637308413 0.5075146273292139 0  -1.434314575049147 0.5656854249476236 0  -1.492485372667197 0.6184083626886415 0  -1.555543813582104 0.6651756898405565 0  -1.62288261053673 0.7055370114773629 0  -1.693853254105125 0.7391036260078683 0  -1.767772258193396 0.7655522685848468 0  -1.84392774238373 0.7846282243219146 0  -1.921586287732977 0.7961477813374253 0  -1.999999999996558 0.8 0  -2.078413712260516 0.7961477813380661 0  -2.156072257610207 0.7846282243231205 0  -2.232227741801178 0.7655522685864928 0  -2.306146745890059 0.7391036260098632 0  -2.377117389459098 0.7055370114795929 0  -2.444456186414405 0.6651756898428894 0  -2.50751462732998 0.6184083626909587 0  -2.565685424948549 0.5656854249499272 0  -2.61840836268981 0.5075146273313792 0  -2.665175689841831 0.4444561864159886 0  -2.705537011478692 0.3771173894607835 0  -2.739103626009108 0.3061467458918818 0  -2.76555226858589 0.2322277418031643 0  -2.784628224322724 0.1560722576122001 0  -2.796147781337853 0.07841371226267957 0  0.6720367661319522 0.1312687487860887 0  -4.389489086394485 0.3544472233398538 0  -3.816221554046232 -0.6097988664512611 0  -3.552726516474419 0.9342959806851625 0  -0.2536610443052337 0.8162373554653355 0  -0.1843238977799138 -0.6649951410982842 0  -3.613359951620445 0.1086570650978273 0  -3.146954163409593 -1.074378179335012 0  -0.4255266515582625 0.07734891565364931 0  -0.9413731612925856 1.168014724254929 0  -2.947764053183577 1.200029094390044 0  -0.8319852757411681 -1.058626838707328 0  2.675418990747819 -1.137325591670363e-12 0  -2.602010642259726 -1.287560129290477 0  -2.334401622060699 1.335006108940604 0  -1.524718496628401 1.32890816230333 0  -1.369813829148039 -1.26145150481762 0  -3.294065651892671 -0.4630240940010318 0  -2.072749204569071 -1.388981302138359 0  -0.7546165313921411 0.5601792161340381 0  -3.224879719581335 0.4382689715877901 0  -0.7073137361349826 -0.4625305410752652 0  4.326242945813966 0.3262429458150917 0  -3.187880061217201 0.07437712177460168 0  -2.94792024259867 0.7030255657465158 0  -2.678809277907896 0.9152683582887104 0  -4.911626141576894 -0.5700186648601188 0  -2.980647654587299 -0.5685006168686053 0  -2.769438919323564 -0.8202775213660614 0  -1.936950121013948 1.220669938589229 0  -0.8971643766260747 0.2762459428874499 0  -0.8760878018253068 -0.06836412137772707 0  -1.086827485441145 0.6772548942594016 0  -1.31355927028917 0.8808768148414213 0  -1.034266382739347 -0.5912381576649568 0  -1.241594139118264 -0.836771920085274 0  1.667161185638911 -0.6367996576268693 0  1.778189842800902 0.7191719841256095 0  -3.065106827511819 -0.266795371500425 0  3.714311277362231 -0.7275465302492842 0  -1.728329421201519 -1.09954751473283 0  4.870629493137888 -0.7325040699186681 0  -3.024707894719303 0.2567561910603656 0  -4.375540207252226 1.228935704312058 0  -2.272077148001781 -1.086192861256262 0  3.351408248797803 0.9175227128129597 0  -5.141847419540732 0.8091901960109126 0  0.5769368286199241 1.111816231125821 0  0.7411482978492124 -1.079569101289617 0  -1.074013749991219 0.430231207546053 0  -1.04664573441257 -0.3358382377487088 0  -2.439195336951085 0.9224778883059374 0  -2.902607676587358 0.4360473765597399 0  -1.629450174302152 1.035617385691805 0  -2.146859933125513 1.032375363966426 0  2.587625196444542 -0.9999926061845814 0  -2.529286802957126 -0.8830616815739111 0  -1.493798157676768 -0.8794705728517196 0  -1.932158132383022 -1.026681566564148 0  -4.09956359341904 -0.1372485582942864 0  5.055802064425553 1.050933510837308 0  -4.413659685984891 -1.207626391697488 0  -4.961411026474009 0.1201902955685026 0  -3.771151641156835 -1.303594976371997 0  -3.001321503506133 -0.04919177107285733 0  -3.881733605683001 0.5124517634812003 0  -0.1971627317996802 -1.336445372382849 0  -2.742825060181767 0.6732573903735507 0  2.520439429199979 1.129372838786189 0  -1.026326428668429 0.1384273198437734 0  -2.779290004861729 -0.5844691722665721 0  -2.895095740820851 -0.4261289730972082 0  -1.275682076193407 0.6630703172777138 0  0.1045291701958869 0.3433373435296472 0  5.175560481258801 0.0608563229178163 0  -1.211574424201636 -0.5847362589868093 0  -1.85847006217035 1.007917631940711 0  4.152535916385823 1.131901130662082 0  -1.04878257200685 -0.1253529988863012 0  1.432836501626023 0.05634449574318775 0  3.560672936003603 0.01188897172456759 0  -3.351823698389408 -0.1821329582635926 0  -5.145153363200735 -1.259166339382508 0  0.03473693330309885 -0.1724947236036572 0  -4.377830921337186 -0.6172564090242229 0  -0.3943750728122595 1.410897156959435 0  -1.661073679471639 -0.9342065000197183 0  -1.49086536677686 0.8331714487926741 0  -2.584486130952032 0.7871482690034864 0  4.270535884593893 -1.259607924744415 0  -1.757417028085795 -1.505182186951191 0  -3.430586920998477 1.425579221231371 0  -2.917598827418652 -0.2298465409534677 0  -2.328978331116049 -0.9300959620317677 0  -2.148543000691344 -0.9751580214451921 0  1.002654111360038 -0.4521702885594788 0  -4.628651824080903 -0.1127998710567241 0  -2.948904386702482 0.1555943115410545 0  0.4165242577134774 -0.5629432649478633 0  -3.698137692471105 -0.3173027948676715 0  -3.491400684461791 -0.7926319721650269 0  -0.3844454817728994 0.4680628696134375 0  -3.207830713508533 0.9778749990559993 0  3.229909751065535 -1.326302454776001 0  5.330007715336748 -1.312905173261894 0  -2.649214054100534 -0.713314536278899 0  1.342022964818772 -1.328315248672686 0  -2.556460939068198 1.202372762828344 0  -0.3497819755044588 -0.3080427614060888 0  -4.928440909495523 1.387622767511967 0  1.309170811945155 1.337467055109531 0  -1.352031940181449 -0.7151198948590243 0  -0.6132855723904642 0.9519045895123004 0  4.266838388406324 -0.3707357390867402 0  -3.834389788310238 1.371594798941152 0  -1.187890214580146 0.4851427123079557 0  -1.109118888029193 0.3185947354467283 0  0.1837819401738013 1.234799661476361 0  1.108165254659559 0.6237223548284967 0  -0.5266600156584522 -0.8113991260886402 0  -4.643822083543982 0.7834094684931707 0  -1.146235204666366 -0.4027330721405781 0  2.049029845992713 -0.2664662499985428 0  2.002665761665898 -1.328912351029848 0  -1.678783505586872 0.8978832065736417 0  -2.049499525232052 0.9483890761590005 0  -2.229972236535132 0.9181006323151361 0  -3.033763529945482 -1.54240494280775 0  -3.562344364746847 0.5622550957224539 0  -5.524396842903405 -0.2709714867672603 0  -0.9710982764034376 -1.549038578476423 0  3.058819320130555 -0.5375106252795963 0  -4.170365230099585 0.7342553699229977 0  -1.045878746461381 -8.187420622554697e-05 0  -1.864822945411764 -0.9219031104673102 0  -0.6251005091687033 -0.2120650512195049 0  2.317562622406059 0.4886417799113238 0  -0.6674371191466613 0.1483993095055008 0  -2.705757882979874 1.609712312948224 0  
[...]
<PointData  Vectors="f_22"> 
<DataArray  type="Float64"  Name="f_22"  NumberOfComponents="3" format="ascii">0.0000000000000000e+00 0.0000000000000000e+00 0.0000000000000000e+00  0.0000000000000000e+00 0.0000000000000000e+00 0.0000000000000000e+00  0.0000000000000000e+00 0.0000000000000000e+00 0.0000000000000000e+00  0.0000000000000000e+00 0.0000000000000000e+00 0.0000000000000000e+00  9.9999997593762435e-01 0.0000000000000000e+00 0.0000000000000000e+00  9.9999997593762435e-01 0.0000000000000000e+00 0.0000000000000000e+00  0.0000000000000000e+00 0.0000000000000000e+00 0.0000000000000000e+00  0.0000000000000000e+00 0.0000000000000000e+00 0.0000000000000000e+00  0.0000000000000000e+00 0.0000000000000000e+00 0.0000000000000000e+00  0.0000000000000000e+00 0.0000000000000000e+00 0.0000000000000000e+00  0.0000000000000000e+00 0.0000000000000000e+00 0.0000000000000000e+00  0.0000000000000000e+00 0.0000000000000000e+00 0.0000000000000000e+00  0.0000000000000000e+00 0.0000000000000000e+00 0.0000000000000000e+00  0.0000000000000000e+00 0.0000000000000000e+00 0.0000000000000000e+00  0.0000000000000000e+00 0.0000000000000000e+00 0.0000000000000000e+00  0.0000000000000000e+00 0.0000000000000000e+00 0.0000000000000000e+00  0.0000000000000000e+00 0.0000000000000000e+00 0.0000000000000000e+00  0.0000000000000000e+00 0.0000000000000000e+00 0.0000000000000000e+00  0.0000000000000000e+00 0.0000000000000000e+00 0.0000000000000000e+00  0.0000000000000000e+00 0.0000000000000000e+00 0.0000000000000000e+00  0.0000000000000000e+00 0.0000000000000000e+00 0.0000000000000000e+00  0.0000000000000000e+00 0.0000000000000000e+00 0.0000000000000000e+00  0.0000000000000000e+00 0.0000000000000000e+00 0.0000000000000000e+00  0.0000000000000000e+00 0.0000000000000000e+00 0.0000000000000000e+00  0.0000000000000000e+00 0.0000000000000000e+00 0.0000000000000000e+00  0.0000000000000000e+00 0.0000000000000000e+00 0.0000000000000000e+00  0.0000000000000000e+00 0.0000000000000000e+00 0.0000000000000000e+00  0.0000000000000000e+00 0.0000000000000000e+00 0.0000000000000000e+00  0.0000000000000000e+00 0.0000000000000000e+00 0.0000000000000000e+00  2.9169394727842213e-01 1.2187993736117063e-04 0.0000000000000000e+00  3.1886928121706770e-01 1.5937651901293403e-04 0.0000000000000000e+00  3.2040878062073275e-01 -1.8674928974705498e-05 0.0000000000000000e+00  3.2050555811110865e-01 -8.7158533925273908e-06 0.0000000000000000e+00  3.2042867872994391e-01 -6.6532726797921537e-06 0.0000000000000000e+00  3.1955752094010043e-01 2.1831737497677778e-04 0.0000000000000000e+00  2.9231010950596009e-01 -4.9217240773093238e-04 0.0000000000000000e+00  0.0000000000000000e+00 0.0000000000000000e+00 0.0000000000000000e+00  0.0000000000000000e+00 0.0000000000000000e+00 0.0000000000000000e+00  0.0000000000000000e+00 0.0000000000000000e+00 0.0000000000000000e+00  0.0000000000000000e+00 0.0000000000000000e+00 0.0000000000000000e+00  0.0000000000000000e+00 0.0000000000000000e+00 0.0000000000000000e+00  0.0000000000000000e+00 0.0000000000000000e+00 0.0000000000000000e+00  0.0000000000000000e+00 0.0000000000000000e+00 0.0000000000000000e+00  0.0000000000000000e+00 0.0000000000000000e+00 0.0000000000000000e+00  0.0000000000000000e+00 0.0000000000000000e+00 0.0000000000000000e+00  0.0000000000000000e+00 0.0000000000000000e+00 0.0000000000000000e+00  0.0000000000000000e+00 0.0000000000000000e+00 0.0000000000000000e+00  0.0000000000000000e+00 0.0000000000000000e+00 0.0000000000000000e+00  0.0000000000000000e+00 0.0000000000000000e+00 0.0000000000000000e+00  0.0000000000000000e+00 0.0000000000000000e+00 0.0000000000000000e+00  0.0000000000000000e+00 0.0000000000000000e+00 0.0000000000000000e+00  0.0000000000000000e+00 0.0000000000000000e+00 0.0000000000000000e+00  0.0000000000000000e+00 0.0000000000000000e+00 0.0000000000000000e+00  0.0000000000000000e+00 0.0000000000000000e+00 0.0000000000000000e+00  0.0000000000000000e+00 0.0000000000000000e+00 0.0000000000000000e+00  0.0000000000000000e+00 0.0000000000000000e+00 0.0000000000000000e+00  0.0000000000000000e+00 0.0000000000000000e+00 0.0000000000000000e+00  0.0000000000000000e+00 0.0000000000000000e+00 0.0000000000000000e+00  0.0000000000000000e+00 0.0000000000000000e+00 0.0000000000000000e+00  2.8562473374870262e-01 -1.1464135504182648e-03 0.0000000000000000e+00  3.1663879664658168e-01 -1.0135594510920932e-03 0.0000000000000000e+00  3.2609566998823358e-01 -1.3642974251871023e-03 0.0000000000000000e+00  3.3110367508863525e-01 1.1057965654431552e-03 0.0000000000000000e+00  3.2710901465964082e-01 4.5405846743006007e-04 0.0000000000000000e+00  3.1782130893442462e-01 8.6063125290223533e-04 0.0000000000000000e+00  2.8532536765352318e-01 9.1370416521478856e-04 0.0000000000000000e+00  9.9999997593762435e-01 0.0000000000000000e+00 0.0000000000000000e+00  9.9999997593762435e-01 0.0000000000000000e+00 0.0000000000000000e+00  9.9999997593762435e-01 0.0000000000000000e+00 0.0000000000000000e+00  9.9999997593762435e-01 0.0000000000000000e+00 0.0000000000000000e+00  9.9999997593762435e-01 0.0000000000000000e+00 0.0000000000000000e+00  9.9999997593762435e-01 0.0000000000000000e+00 0.0000000000000000e+00  9.9999997593762435e-01 0.0000000000000000e+00 0.0000000000000000e+00  9.9999997593762435e-01 0.0000000000000000e+00 0.0000000000000000e+00  9.9999997593762435e-01 0.0000000000000000e+00 0.0000000000000000e+00  9.9999997593762435e-01 0.0000000000000000e+00 0.0000000000000000e+00  9.9999997593762435e-01 0.0000000000000000e+00 0.0000000000000000e+00  9.9999997593762435e-01 0.0000000000000000e+00 0.0000000000000000e+00  9.9999997593762435e-01 0.0000000000000000e+00 0.0000000000000000e+00  9.9999997593762435e-01 0.0000000000000000e+00 0.0000000000000000e+00  9.9999997593762435e-01 0.0000000000000000e+00 0.0000000000000000e+00  9.9999997593762435e-01 0.0000000000000000e+00 0.0000000000000000e+00  9.9999997593762435e-01 0.0000000000000000e+00 0.0000000000000000e+00  9.9999997593762435e-01 0.0000000000000000e+00 0.0000000000000000e+00  9.9999997593762435e-01 0.0000000000000000e+00 0.0000000000000000e+00  9.9999997593762435e-01 0.0000000000000000e+00 0.0000000000000000e+00  9.9999997593762435e-01 0.0000000000000000e+00 0.0000000000000000e+00  9.9999997593762435e-01 0.0000000000000000e+00 0.0000000000000000e+00  9.9999997593762435e-01 0.0000000000000000e+00 0.0000000000000000e+00  9.9999997593762435e-01 0.0000000000000000e+00 0.0000000000000000e+00  9.9999997593762435e-01 0.0000000000000000e+00 0.0000000000000000e+00  9.9999997593762435e-01 0.0000000000000000e+00 0.0000000000000000e+00  9.9999997593762435e-01 0.0000000000000000e+00 0.0000000000000000e+00  9.9999997593762435e-01 0.0000000000000000e+00 0.0000000000000000e+00  9.9999997593762435e-01 0.0000000000000000e+00 0.0000000000000000e+00  9.9999997593762435e-01 0.0000000000000000e+00 0.0000000000000000e+00  9.9999997593762435e-01 0.0000000000000000e+00 0.0000000000000000e+00  9.9999997593762435e-01 0.0000000000000000e+00 0.0000000000000000e+00  9.9999997593762435e-01 0.0000000000000000e+00 0.0000000000000000e+00  9.9999997593762435e-01 0.0000000000000000e+00 0.0000000000000000e+00  9.9999997593762435e-01 0.0000000000000000e+00 0.0000000000000000e+00  9.9999997593762435e-01 0.0000000000000000e+00 0.0000000000000000e+00  9.9999997593762435e-01 0.0000000000000000e+00 0.0000000000000000e+00  9.9999997593762435e-01 0.0000000000000000e+00 0.0000000000000000e+00  9.9999997593762435e-01 0.0000000000000000e+00 0.0000000000000000e+00  9.9999997593762435e-01 0.0000000000000000e+00 0.0000000000000000e+00  9.9999997593762435e-01 0.0000000000000000e+00 0.0000000000000000e+00  9.9999997593762435e-01 0.0000000000000000e+00 0.0000000000000000e+00  9.9999997593762435e-01 0.0000000000000000e+00 0.0000000000000000e+00  9.9999997593762435e-01 0.0000000000000000e+00 0.0000000000000000e+00  9.9999997593762435e-01 0.0000000000000000e+00 0.0000000000000000e+00  9.9999997593762435e-01 0.0000000000000000e+00 0.0000000000000000e+00  9.9999997593762435e-01 0.0000000000000000e+00 0.0000000000000000e+00  9.9999997593762435e-01 0.0000000000000000e+00 0.0000000000000000e+00  9.9999997593762435e-01 0.0000000000000000e+00 0.0000000000000000e+00  9.9999997593762435e-01 0.0000000000000000e+00 0.0000000000000000e+00  9.9999997593762435e-01 0.0000000000000000e+00 0.0000000000000000e+00  9.9999997593762435e-01 0.0000000000000000e+00 0.0000000000000000e+00  9.9999997593762435e-01 0.0000000000000000e+00 0.0000000000000000e+00  9.9999997593762435e-01 0.0000000000000000e+00 0.0000000000000000e+00  9.9999997593762435e-01 0.0000000000000000e+00 0.0000000000000000e+00  9.9999997593762435e-01 0.0000000000000000e+00 0.0000000000000000e+00  9.9999997593762435e-01 0.0000000000000000e+00 0.0000000000000000e+00  9.9999997593762435e-01 0.0000000000000000e+00 0.0000000000000000e+00  9.9999997593762435e-01 0.0000000000000000e+00 0.0000000000000000e+00  9.9999997593762435e-01 0.0000000000000000e+00 0.0000000000000000e+00  9.9999997593762435e-01 0.0000000000000000e+00 0.0000000000000000e+00  9.9999997593762435e-01 0.0000000000000000e+00 0.0000000000000000e+00  6.2274140852894810e-01 2.5734325183802448e-02 0.0000000000000000e+00  3.4222514816008481e-01 -1.2151597227209735e-02 0.0000000000000000e+00  3.4757392153079120e-01 5.7842825613356574e-02 0.0000000000000000e+00  3.0155845779513774e-01 -8.7291436638081227e-02 0.0000000000000000e+00  5.3651564930376106e-01 2.1790792806615625e-01 0.0000000000000000e+00  6.2379607450520758e-01 -1.6578364938534232e-01 0.0000000000000000e+00  4.1962438879738573e-01 -2.0275646718632509e-02 0.0000000000000000e+00  2.1169165567274670e-01 1.3030163723372251e-01 0.0000000000000000e+00  8.6887604202988555e-01 1.7331713306451169e-02 0.0000000000000000e+00  6.4753458560531121e-02 1.9046118035287246e-01 0.0000000000000000e+00  1.3836762219233570e-01 -1.1978748166324399e-01 0.0000000000000000e+00  3.3987939977485437e-01 -2.6135743864354749e-01 0.0000000000000000e+00  3.3810550169071790e-01 -1.6626665848204082e-04 0.0000000000000000e+00  -1.7693700243741329e-02 1.9634681355807268e-01 0.0000000000000000e+00  -1.9852179010117996e-01 -2.7983934991014725e-01 0.0000000000000000e+00  -4.3710212052006542e-01 -2.2218794231738012e-01 0.0000000000000000e+00  -3.0601780728743877e-01 1.1320591840973634e-01 0.0000000000000000e+00  4.1659500160582619e-01 1.5337926182255218e-01 0.0000000000000000e+00  -3.6502330673616779e-01 3.1320583439901256e-01 0.0000000000000000e+00  8.5429187890215552e-01 1.3341107257822590e-01 0.0000000000000000e+00  4.3895591325530969e-01 -1.7271450037995958e-01 0.0000000000000000e+00  8.6848706991802582e-01 -1.0924765941489482e-01 0.0000000000000000e+00  3.2100124200595448e-01 4.0408154543477496e-04 0.0000000000000000e+00  5.6800807747918125e-01 -4.1121527207754936e-02 0.0000000000000000e+00  2.7321156484673326e-01 -3.1966467017159095e-01 0.0000000000000000e+00  1.2842975198473152e-02 -4.0234610358036327e-01 0.0000000000000000e+00  3.2846060605334282e-01 6.3347403543343823e-03 0.0000000000000000e+00  3.7871131243785155e-01 3.2761254282325208e-01 0.0000000000000000e+00  1.1184354703038978e-01 4.0476673373895616e-01 0.0000000000000000e+00  -3.6455164643239274e-01 -3.6126433748104614e-01 0.0000000000000000e+00  9.5254915841103083e-01 4.7426385414031838e-02 0.0000000000000000e+00  9.6610947593435537e-01 -1.2808618855504756e-02 0.0000000000000000e+00  9.4069349013213965e-01 1.0243630291864982e-01 0.0000000000000000e+00  6.8292898385170842e-01 4.4534783156655128e-02 0.0000000000000000e+00  9.3427633052344050e-01 -9.4422581332228625e-02 0.0000000000000000e+00  7.9969056458136045e-01 -7.5303167348955410e-02 0.0000000000000000e+00  3.5910601206423759e-01 -9.3016606798120127e-02 0.0000000000000000e+00  3.3690916331019921e-01 8.7325017095535098e-02 0.0000000000000000e+00  5.7766899685310680e-01 1.9822773448146397e-01 0.0000000000000000e+00  3.2060112484365799e-01 -2.2471558970428331e-03 0.0000000000000000e+00  -1.3761592687839364e-01 2.2798918182993255e-01 0.0000000000000000e+00  3.2027355720918083e-01 -2.7105175456515826e-04 0.0000000000000000e+00  6.0745588123605776e-01 -2.1380702334440554e-01 0.0000000000000000e+00  3.0363552981974296e-01 -1.7971484592119689e-02 0.0000000000000000e+00  -2.9402280638200179e-01 4.6310137931892037e-01 0.0000000000000000e+00  3.1766777918027245e-01 4.3254020027460966e-03 0.0000000000000000e+00  3.2211508839345221e-01 -4.0393659479645285e-03 0.0000000000000000e+00  2.1901963955735243e-01 1.6202392182637440e-01 0.0000000000000000e+00  2.3904072186442804e-01 -1.6083793065576790e-01 0.0000000000000000e+00  9.6214644860707665e-01 5.2301708552381206e-02 0.0000000000000000e+00  9.7027104837482925e-01 -4.1253158378515474e-02 0.0000000000000000e+00  -1.7839077477717885e-01 -5.4503880705501806e-01 0.0000000000000000e+00  5.1139240136500375e-01 -3.6881737857241853e-01 0.0000000000000000e+00  6.8231230281354083e-02 -1.5215833587246710e-01 0.0000000000000000e+00  -2.9773155306767768e-01 -4.2201118044660774e-01 0.0000000000000000e+00  3.1180917963490723e-01 -1.9593683672404466e-02 0.0000000000000000e+00  -8.6267143417474573e-02 5.3315027064464005e-01 0.0000000000000000e+00  6.2533462477663959e-01 4.8469924143918494e-03 0.0000000000000000e+00  -1.7489239895351982e-01 2.9168090704031119e-01 0.0000000000000000e+00  3.6120765975092306e-01 1.0127820270510424e-02 0.0000000000000000e+00  3.1800047178786051e-01 4.5346905809506312e-04 0.0000000000000000e+00  3.0474963602205823e-01 1.7343012915682542e-02 0.0000000000000000e+00  3.3407233628918265e-01 -8.6216832328519588e-04 0.0000000000000000e+00  2.7191088863564034e-01 4.0079765223266603e-02 0.0000000000000000e+00  7.1523850166604930e-01 3.8834503710263993e-02 0.0000000000000000e+00  3.5497270911321954e-01 -4.5167803842200725e-02 0.0000000000000000e+00  -3.6032463683554714e-02 -2.1412970904168546e-01 0.0000000000000000e+00  2.1196780628058401e-01 -5.0623239059425507e-01 0.0000000000000000e+00  3.0385435751029838e-01 2.0909042977414864e-02 0.0000000000000000e+00  9.8568468094459538e-01 1.5399378220122576e-02 0.0000000000000000e+00  3.2596249464086613e-01 5.0775106227284650e-01 0.0000000000000000e+00  5.3114418666217977e-01 3.6552646463913180e-01 0.0000000000000000e+00  9.8541527274427143e-01 4.1743104490601771e-02 0.0000000000000000e+00  6.9899594954341771e-01 7.3432834282055590e-02 0.0000000000000000e+00  3.2061098380866743e-01 9.9215416077895463e-05 0.0000000000000000e+00  9.7290435476898263e-01 -4.8246483813078056e-02 0.0000000000000000e+00  -7.7464632732119260e-02 -2.3740707518283177e-01 0.0000000000000000e+00  3.1651568236562078e-01 8.5650879705396641e-04 0.0000000000000000e+00  9.8890332666759972e-01 -1.3545299954725563e-02 0.0000000000000000e+00  4.7832283868654357e-01 1.0898330447824903e-02 0.0000000000000000e+00  3.2359620065945899e-01 7.0022376758121271e-05 0.0000000000000000e+00  4.8083634360095101e-01 6.6418652666924802e-02 0.0000000000000000e+00  3.0800026739960529e-01 4.1917044591339653e-03 0.0000000000000000e+00  7.5064806167687115e-01 -3.8959402529327253e-02 0.0000000000000000e+00  3.3326711999404546e-01 1.9739655666754428e-02 0.0000000000000000e+00  -1.3329004554305257e-01 2.1810153574394392e-01 0.0000000000000000e+00  3.1514469946506013e-01 7.3157780164927161e-02 0.0000000000000000e+00  7.9459446914392606e-01 7.4220977291196751e-03 0.0000000000000000e+00  -2.1338923602472488e-02 -5.9942944153753364e-01 0.0000000000000000e+00  3.1324481369400226e-01 -4.8492436794132261e-04 0.0000000000000000e+00  -5.4998774794931682e-01 2.5425211104098672e-01 0.0000000000000000e+00  2.2340032903681167e-01 -4.2039098352627709e-02 0.0000000000000000e+00  7.0493200768631814e-01 2.6044471143998293e-01 0.0000000000000000e+00  -2.5612633161636505e-01 5.2907540823878663e-01 0.0000000000000000e+00  -2.7660211496693704e-01 4.0448398659138685e-01 0.0000000000000000e+00  5.0040669646229285e-01 -8.3671687633717906e-02 0.0000000000000000e+00  3.3946663024297535e-01 3.1948253055582450e-03 0.0000000000000000e+00  7.3186776994871772e-01 -1.6297642943036494e-01 0.0000000000000000e+00  5.5738431283056256e-01 -1.0905576215789743e-01 0.0000000000000000e+00  3.8932366592558315e-01 4.9190845288064923e-02 0.0000000000000000e+00  3.2031434152866223e-01 1.0623312961516711e-01 0.0000000000000000e+00  7.7421455488854507e-01 1.1819258982997248e-01 0.0000000000000000e+00  2.4873437398936907e-01 -1.4063934843013662e-01 0.0000000000000000e+00  3.0598836581742711e-01 -3.4864464083646783e-03 0.0000000000000000e+00  3.1120066667357305e-01 -3.7851780147542190e-05 0.0000000000000000e+00  8.6907267353724116e-02 6.0283732217093489e-01 0.0000000000000000e+00  1.8750703519631928e-01 -1.0072562124441825e-01 0.0000000000000000e+00  -6.4594036788238565e-02 -2.6813246266207330e-01 0.0000000000000000e+00  8.1393422319530850e-01 -7.6570162575076095e-02 0.0000000000000000e+00  2.9723709154756789e-01 -5.4821047211849874e-03 0.0000000000000000e+00  1.7657727009881796e-01 1.0045307861238011e-01 0.0000000000000000e+00  9.8380869468153120e-01 -3.0516014772988993e-02 0.0000000000000000e+00  5.0198274992307979e-01 2.8862396587104056e-01 0.0000000000000000e+00  3.2103269949794583e-01 -5.1483487478843411e-04 0.0000000000000000e+00  2.6774427891086022e-01 -3.2470884846039140e-02 0.0000000000000000e+00  9.7404211785198702e-01 3.8514400634270578e-02 0.0000000000000000e+00  9.8156332753408904e-01 2.8967411635255656e-02 0.0000000000000000e+00  1.1726355503668638e-01 1.8117211029150362e-01 0.0000000000000000e+00  4.2831361627083847e-01 1.1056599280060404e-01 0.0000000000000000e+00  6.3240372428585323e-01 -2.3901534429533611e-01 0.0000000000000000e+00  3.2507303156523448e-01 -1.2233223730942286e-02 0.0000000000000000e+00  9.7729737947618966e-01 -3.4976121499434937e-02 0.0000000000000000e+00  3.7071225781169598e-01 -2.9614877215090953e-02 0.0000000000000000e+00  2.6906653078191123e-01 -3.8707905379999075e-02 0.0000000000000000e+00  4.4968636248535232e-01 -4.1727890022664763e-02 0.0000000000000000e+00  -1.9471672130763507e-01 -2.9887566988881764e-01 0.0000000000000000e+00  -2.8586695088199970e-01 -4.7243363676782962e-01 0.0000000000000000e+00  1.4787885190498087e-01 2.9453628168386578e-02 0.0000000000000000e+00  3.6682280230367897e-01 -9.0480760565897975e-02 0.0000000000000000e+00  3.2962434798887513e-01 8.2858470193211437e-04 0.0000000000000000e+00  -5.6243050069283118e-01 -7.5328193264735749e-02 0.0000000000000000e+00  3.2440688950809887e-01 -7.2054185589247787e-03 0.0000000000000000e+00  3.3066851452489432e-01 -3.0827424373099828e-02 0.0000000000000000e+00  9.9085246077375400e-01 -3.3778033338572266e-04 0.0000000000000000e+00  1.2448283350875688e-01 1.1635935945948339e-01 0.0000000000000000e+00  9.0132951850925114e-01 -4.8945137735367406e-02 0.0000000000000000e+00  3.3982571831793634e-01 2.8246124061923932e-02 0.0000000000000000e+00  9.2035954632674100e-01 3.2009987179094035e-02 0.0000000000000000e+00  9.3589961894907633e-02 -3.3804768732522014e-02 0.0000000000000000e+00  2.5484196141300802e-01 3.9237305427221203e-02 0.0000000000000000e+00  3.7136340501943932e-01 -5.0735373475660883e-01 0.0000000000000000e+00  6.5536423954309908e-01 -3.7855512701891275e-01 0.0000000000000000e+00  9.3271962082829951e-01 -5.4747272355501614e-02 0.0000000000000000e+00  3.1609567818297085e-01 1.8714431591768446e-01 0.0000000000000000e+00  3.0834614689305490e-01 -1.2539045056545813e-03 0.0000000000000000e+00  2.4341587594757114e-01 -1.8892522443743592e-01 0.0000000000000000e+00  -6.9360019150379959e-01 2.3086290106051105e-03 0.0000000000000000e+00  3.2780525052095733e-01 -1.8626071213805681e-01 0.0000000000000000e+00  -3.6451370725382010e-01 -1.5870389636703580e-01 0.0000000000000000e+00  3.7440738133097845e-01 -1.2341971127825547e-02 0.0000000000000000e+00  9.7577095197485730e-01 2.3286136169166888e-02 0.0000000000000000e+00  8.9636395140925851e-01 7.8993414290662242e-02 0.0000000000000000e+00  5.9032310629571461e-01 3.7116043823854494e-01 0.0000000000000000e+00  7.4728413508548486e-01 2.1863779193438554e-01 0.0000000000000000e+00  9.9125036643134823e-01 -1.6395421562452623