<?xml version="1.0"?>
<VTKFile type="UnstructuredGrid"  version="0.1"  >
<UnstructuredGrid>
<Piece  NumberOfPoints="406" NumberOfCells="722">
<Points>
<DataArray  type="Float64"  NumberOfComponents="3"  format="ascii">-6 -2 0  -6 2 0  6 2 0  6 -2 0  -2.8 0 0  -1.2 0 0  -5.500000000001853 -2 0  -5.000000000003705 -2 0  -4.500000000005556 -2 0  -4.000000000007409 -2 0  -3.50000000000926 -2 0  -3.000000000011112 -2 0  -2.500000000012963 -2 0  -2.000000000014814 -2 0  -1.500000000016665 -2 0  -1.000000000018516 -2 0  -0.5000000000203677 -2 0  -2.204547655537681e-11 -2 0  0.4999999999796305 -2 0  0.9999999999814779 -2 0  1.499999999983327 -2 0  1.999999999985175 -2 0  2.499999999987029 -2 0  2.999999999988882 -2 0  3.499999999990735 -2 0  3.999999999992589 -2 0  4.49999999999444 -2 0  4.999999999996293 -2 0  5.499999999998147 -2 0  6 -1.500000000001387 0  6 -1.000000000002774 0  6 -0.5000000000041616 0  6 -5.505595979116151e-12 0  6 0.4999999999958384 0  6 0.9999999999972258 0  6 1.499999999998613 0  5.500000000001853 2 0  5.000000000003705 2 0  4.500000000005556 2 0  4.000000000007409 2 0  3.50000000000926 2 0  3.000000000011112 2 0  2.500000000012963 2 0  2.000000000014814 2 0  1.500000000016665 2 0  1.000000000018516 2 0  0.5000000000203677 2 0  2.204547655537681e-11 2 0  -0.4999999999796305 2 0  -0.9999999999814779 2 0  -1.499999999983327 2 0  -1.999999999985175 2 0  -2.499999999987029 2 0  -2.999999999988882 2 0  -3.499999999990735 2 0  -3.999999999992589 2 0  -4.49999999999444 2 0  -4.999999999996293 2 0  -5.499999999998147 2 0  -6 1.500000000001387 0  -6 1.000000000002774 0  -6 0.5000000000041616 0  -6 5.505595979116151e-12 0  -6 -0.4999999999958384 0  -6 -0.9999999999972258 0  -6 -1.499999999998613 0  -2.776753453941174 -0.1914525314286965 0  -2.708364820523325 -0.3717785376335722 0  -2.598808598538216 -0.5304981265911284 0  -2.454451797386757 -0.65838709271366 0  -2.283683909636528 -0.748012994147384 0  -2.096429344207466 -0.7941670992780535 0  -1.903570655798842 -0.7941670992788195 0  -1.716316090368095 -0.7480129941491368 0  -1.545548202616307 -0.6583870927157747 0  -1.401191401463757 -0.530498126593356 0  -1.291635179477527 -0.371778537635196 0  -1.223246546059047 -0.1914525314295925 0  -1.223246546058803 0.1914525314286035 0  -1.291635179476594 0.3717785376334188 0  -1.401191401461634 0.5304981265909601 0  -1.545548202612898 0.6583870927134221 0  -1.716316090363093 0.7480129941472402 0  -1.903570655792394 0.7941670992780367 0  -2.096429344201276 0.7941670992788055 0  -2.283683909631911 0.7480129941491347 0  -2.454451797383697 0.6583870927157729 0  -2.598808598536385 0.530498126593196 0  -2.70836482052258 0.3717785376349917 0  -2.776753453940975 0.1914525314295042 0  0.4588466633941945 0.2704149791022056 0  -4.424312812173863 0.2760319703992994 0  -3.803977598762586 -0.6841584599595646 0  -0.1330968762779425 -0.6798763971615133 0  2.451109587541276 3.169800318630399e-13 0  -3.563610936250569 0.5929994091167295 0  4.204753319582647 0.2820669554523581 0  -0.4390897559348154 0.6178095532273566 0  -3.041446812595122 1.175550440315544 0  -0.9622132806516797 1.132103015222783 0  1.069493318942931 -0.773608156980569 0  -4.924330687080279 -0.7127064269610045 0  -3.024693497948964 -1.195179289656404 0  -0.9648749555625579 -1.256854520022574 0  -3.443624282349383 -0.2044158249759613 0  -0.5611500783757608 -0.1747080110423833 0  1.60270880116926 0.7487034276124258 0  3.488352576142236 -0.8228939860777884 0  4.816375011670135 -0.8163750116689444 0  3.243628045085357 0.8578172796997985 0  -4.228632884234073 1.228069101636678 0  -2.365220384435482 -1.356128547810356 0  -1.637465979486354 1.3571687267915 0  -1.642380978561139 -1.359365080147485 0  -2.362988915989869 1.356737096243695 0  -5.134120367293631 0.8356299802910161 0  2.077496878467794 -0.9514080034522553 0  4.960859291178299 0.9608592911785537 0  0.3293120056474302 1.148965409695154 0  -5.157560560414062 0.09447106214747865 0  -3.14779387667392 -0.6330563038825547 0  -3.148134455585257 0.4354299640428653 0  -0.8464439673630421 0.4159277415926296 0  -0.9918125625721008 -0.7191748422889824 0  -4.355349213295776 -1.234510499778242 0  1.582074659164868 -0.06850205959954866 0  2.400584045214166 1.204278622181321 0  5.102831660739063 0.03453404176596848 0  4.083259768981113 1.154272958349666 0  -3.992394834362243 -0.1621022234411988 0  0.4290302718942113 -1.225465289645401 0  -3.681487986394671 -1.310544246656267 0  -3.640289698916164 1.187023654838123 0  0.468851680921228 -0.447055967952278 0  3.315209904217932 0.05667935655546536 0  -2.541160649745046 -1.046980928586996 0  -1.45196684542695 1.044189935346116 0  -2.000844595891861 -1.207983108473125 0  -1.453092202970521 -1.061139264918894 0  -2.000050543938391 1.207806685704176 0  -2.548033154566413 1.04418993534851 0  4.13054585796652 -1.232871249381608 0  -0.3301617095463629 1.221692405319566 0  -0.2880491989587189 -1.359626628407983 0  -0.0758941643813178 0.132275811829787 0  2.826389221580753 -1.233168480096227 0  -2.922070412327736 0.7575752117792038 0  1.003070890178416 1.271347915034201 0  -5.319521816151902 -1.310543894393663 0  -1.070407062963812 0.7877698545098388 0  -4.562499863038985 -0.2302396981426722 0  -3.164226661545047 0.07179577787350272 0  -0.9091377812900333 0.132454654016971 0  4.116029045943655 -0.4851826871817362 0  5.316659189209927 -1.316659189208741 0  -0.9498828454673396 -0.4149758979014553 0  -4.037769805263969 0.6896174350675625 0  1.431664772855882 -1.327784137638992 0  -3.646693623568034 0.1600006358878044 0  -2.878371345483476 -0.7910345833001061 0  1.062603041385242 0.2894765870627741 0  -0.547955103783681 0.1635272504420374 0  -4.804809838419659 1.41016301576038 0  -3.042895319571192 -0.3694931303482478 0  -4.59252578392403 0.792267765362792 0  2.823271260730033 -0.5472430318427347 0  -4.28575390662405 -0.7521491832384866 0  -0.5524005545121191 -0.9037367558558163 0  1.815219025072439 1.388812135783969 0  -1.288398729718543 -0.8178399475601057 0  -5.424388493366639 1.35375165044146 0  -2.256991952837567 -1.049538527273222 0  -1.739586738723494 -1.052327527873255 0  -1.738827359988536 1.050180627239116 0  -2.257795730428802 1.049701225145305 0  -0.62222340523776 -0.5483611729237363 0  2.065188519029698 0.5424877383589943 0  0.1055865106318892 0.7347782870471022 0  1.013082573993895 -0.2061877611231605 0  -5.428323520618333 -0.4386412085227075 0  5.374041502384443 -0.5304401760993408 0  3.435185060219232 -1.377658617395091 0  -3.302377238490527 0.8841390072780534 0  -0.9902123298072768 -0.124175295282554 0  0.7186958547669859 0.8724503317343631 0  2.941237214953417 1.390391532351976 0  4.708037787864423 -1.340276032051348 0  5.395029680982659 1.395029680983341 0  3.591022587550188 1.348260650408605 0  2.759385971589342 0.4857447325740718 0  -0.6832705231418494 0.8879387563573758 0  5.437781298507145 0.5981501503262471 0  -2.698603003287285 1.617130043745112 0  -3.463358189947519 -1.013588318179017 0  1.710866040171871 -0.6978716337870808 0  3.642182982762737 0.4555704362064124 0  -2.699802128031161 -1.618310703146212 0  -1.3020054856637 1.619819977935582 0  -2.000000000004996 -1.566396763829867 0  -1.999999999994794 1.566396763830688 0  -1.247812462071684 -1.595232739507426 0  4.59429106759859 1.420052135572917 0  0.9448382581152466 -1.440259145469251 0  -0.116376100998861 -0.2606209011258676 0  -4.774521510507792 0.4245390872783272 0  -2.983910172370106 -0.1208000607277856 0  -3.353983741142061 1.576062863985777 0  -5.473352579109997 0.4917619255280954 0  -4.828650470275986 -1.493148538517745 0  4.639973657165532 -0.2833178611094909 0  -2.660279445404468 0.7699932347178977 0  -1.335045190775955 0.7744876666923373 0  -3.395669172689978 0.2584951122361346 0  2.279110606119369 -1.465899541383697 0  4.734317729212562 0.4520963557364723 0  -0.6334913028224612 1.584213953723378 0  2.121854101359879 -0.4289611127787379 0  -3.474459720833238 -0.4977581316675216 0  -1.066539898844178 0.3411379476537602 0  -3.361849707555382 -1.611428512420182 0  -4.099039818938317 0.3306400369415774 0  -2.935324777364672 0.354721898811665 0  -3.973578595052027 1.482940358734671 0  3.784450148635689 -0.0702780807301525 0  -1.191348122671212 -0.5614501189722798 0  -2.838672605956353 -0.5493179047027598 0  -1.184983441257359 0.5617520886612424 0  -2.811184099847449 0.5574240755049175 0  0.2702752249355158 -0.8003643570420809 0  -0.6945947797857237 -1.593893965175195 0  0.001175881878679056 1.504521009023778 0  0.6072931735145096 1.501814722697789 0  -3.991896293645949 -1.047264188412552 0  -3.734097395159253 -0.3261671578666079 0  -5.539652387691843 -0.8857154182585802 0  -4.395061924111849 1.563293728588296 0  0.2258327611651416 -0.08745142624872881 0  -3.774816634825771 0.8676973328379478 0  2.208484493569073 1.6256686312487 0  0.1309939514660535 -1.566169703482512 0  -5.551414360955331 0.9459842275970113 0  -4.04734138658365 -1.51163984963472 0  -4.947145019546805 -0.3299925153029702 0  4.320410447198621 0.6970857582435144 0  -4.707557346727139 -1.000565649857444 0  1.353711468973986 1.582551234446199 0  1.674156483558973 0.3266252271732694 0  -4.039105552973997 -0.4537604746027087 0  0.01051727619263377 -1.088858357362194 0  -0.2234942609176301 0.8619127912343982 0  -2.95903482691863 0.1219373374385197 0  -4.682467695920681 0.0804575682243254 0  5.535750224195656 -0.1525732643419722 0  -4.290083947414376 -0.0005258314026840717 0  1.136102562417988 0.7655312464039168 0  -2.816589394567214 0.9927597419785312 0  -2.645374456162409 -0.7645902451387543 0  4.18414576655837 1.624276131878667 0  0.7127337088822223 -0.9006358935856398 0  1.972418102153911 0.9727040774616764 0  -2.42199174813501 0.8591219219254587 0  -2.418604734200992 -0.8552987735117754 0  -5.573597213364169 -0.03612430678117123 0  2.024792870869397 0.05574071630590883 0  -1.578875191508968 0.861424470724936 0  -1.54706008231699 -0.8630049102346303 0  3.848662181064435 -1.569601980075533 0  -2.000000000003871 -0.9746445732264465 0  -1.99999999
[...]
<PointData  Vectors="f_22"> 
<DataArray  type="Float64"  Name="f_22"  NumberOfComponents="3" format="ascii">0.0000000000000000e+00 0.0000000000000000e+00 0.0000000000000000e+00  0.0000000000000000e+00 0.0000000000000000e+00 0.0000000000000000e+00  0.0000000000000000e+00 0.0000000000000000e+00 0.0000000000000000e+00  0.0000000000000000e+00 0.0000000000000000e+00 0.0000000000000000e+00  9.9999995803732111e-01 0.0000000000000000e+00 0.0000000000000000e+00  9.9999995803732111e-01 0.0000000000000000e+00 0.0000000000000000e+00  0.0000000000000000e+00 0.0000000000000000e+00 0.0000000000000000e+00  0.0000000000000000e+00 0.0000000000000000e+00 0.0000000000000000e+00  0.0000000000000000e+00 0.0000000000000000e+00 0.0000000000000000e+00  0.0000000000000000e+00 0.0000000000000000e+00 0.0000000000000000e+00  0.0000000000000000e+00 0.0000000000000000e+00 0.0000000000000000e+00  0.0000000000000000e+00 0.0000000000000000e+00 0.0000000000000000e+00  0.0000000000000000e+00 0.0000000000000000e+00 0.0000000000000000e+00  0.0000000000000000e+00 0.0000000000000000e+00 0.0000000000000000e+00  0.0000000000000000e+00 0.0000000000000000e+00 0.0000000000000000e+00  0.0000000000000000e+00 0.0000000000000000e+00 0.0000000000000000e+00  0.0000000000000000e+00 0.0000000000000000e+00 0.0000000000000000e+00  0.0000000000000000e+00 0.0000000000000000e+00 0.0000000000000000e+00  0.0000000000000000e+00 0.0000000000000000e+00 0.0000000000000000e+00  0.0000000000000000e+00 0.0000000000000000e+00 0.0000000000000000e+00  0.0000000000000000e+00 0.0000000000000000e+00 0.0000000000000000e+00  0.0000000000000000e+00 0.0000000000000000e+00 0.0000000000000000e+00  0.0000000000000000e+00 0.0000000000000000e+00 0.0000000000000000e+00  0.0000000000000000e+00 0.0000000000000000e+00 0.0000000000000000e+00  0.0000000000000000e+00 0.0000000000000000e+00 0.0000000000000000e+00  0.0000000000000000e+00 0.0000000000000000e+00 0.0000000000000000e+00  0.0000000000000000e+00 0.0000000000000000e+00 0.0000000000000000e+00  0.0000000000000000e+00 0.0000000000000000e+00 0.0000000000000000e+00  0.0000000000000000e+00 0.0000000000000000e+00 0.0000000000000000e+00  3.3593135093125848e-01 -3.7793842961943971e-04 0.0000000000000000e+00  5.7631940919442926e-01 -7.4174789960027932e-04 0.0000000000000000e+00  7.1731014729196185e-01 -6.5954284556862352e-04 0.0000000000000000e+00  7.6331525776841547e-01 -2.8640406498570180e-05 0.0000000000000000e+00  7.1726392037277198e-01 6.0808721946340122e-04 0.0000000000000000e+00  5.7620291428281556e-01 7.5177402599223525e-04 0.0000000000000000e+00  3.3575966421212528e-01 3.5530347590798767e-04 0.0000000000000000e+00  0.0000000000000000e+00 0.0000000000000000e+00 0.0000000000000000e+00  0.0000000000000000e+00 0.0000000000000000e+00 0.0000000000000000e+00  0.0000000000000000e+00 0.0000000000000000e+00 0.0000000000000000e+00  0.0000000000000000e+00 0.0000000000000000e+00 0.0000000000000000e+00  0.0000000000000000e+00 0.0000000000000000e+00 0.0000000000000000e+00  0.0000000000000000e+00 0.0000000000000000e+00 0.0000000000000000e+00  0.0000000000000000e+00 0.0000000000000000e+00 0.0000000000000000e+00  0.0000000000000000e+00 0.0000000000000000e+00 0.0000000000000000e+00  0.0000000000000000e+00 0.0000000000000000e+00 0.0000000000000000e+00  0.0000000000000000e+00 0.0000000000000000e+00 0.0000000000000000e+00  0.0000000000000000e+00 0.0000000000000000e+00 0.0000000000000000e+00  0.0000000000000000e+00 0.0000000000000000e+00 0.0000000000000000e+00  0.0000000000000000e+00 0.0000000000000000e+00 0.0000000000000000e+00  0.0000000000000000e+00 0.0000000000000000e+00 0.0000000000000000e+00  0.0000000000000000e+00 0.0000000000000000e+00 0.0000000000000000e+00  0.0000000000000000e+00 0.0000000000000000e+00 0.0000000000000000e+00  0.0000000000000000e+00 0.0000000000000000e+00 0.0000000000000000e+00  0.0000000000000000e+00 0.0000000000000000e+00 0.0000000000000000e+00  0.0000000000000000e+00 0.0000000000000000e+00 0.0000000000000000e+00  0.0000000000000000e+00 0.0000000000000000e+00 0.0000000000000000e+00  0.0000000000000000e+00 0.0000000000000000e+00 0.0000000000000000e+00  0.0000000000000000e+00 0.0000000000000000e+00 0.0000000000000000e+00  0.0000000000000000e+00 0.0000000000000000e+00 0.0000000000000000e+00  3.3435978021371182e-01 -6.6823899310352057e-04 0.0000000000000000e+00  5.7551101008301642e-01 -1.1561358275564793e-03 0.0000000000000000e+00  7.1836642222327574e-01 -9.2971406132903278e-04 0.0000000000000000e+00  7.6560634500570746e-01 -2.0989465751177018e-05 0.0000000000000000e+00  7.1902298103925610e-01 1.0443082792282849e-03 0.0000000000000000e+00  5.7577191737850553e-01 1.2204964246318470e-03 0.0000000000000000e+00  3.3445185797122873e-01 7.0692250596098829e-04 0.0000000000000000e+00  9.9999995803732111e-01 0.0000000000000000e+00 0.0000000000000000e+00  9.9999995803732111e-01 0.0000000000000000e+00 0.0000000000000000e+00  9.9999995803732111e-01 0.0000000000000000e+00 0.0000000000000000e+00  9.9999995803732111e-01 0.0000000000000000e+00 0.0000000000000000e+00  9.9999995803732111e-01 0.0000000000000000e+00 0.0000000000000000e+00  9.9999995803732111e-01 0.0000000000000000e+00 0.0000000000000000e+00  9.9999995803732111e-01 0.0000000000000000e+00 0.0000000000000000e+00  9.9999995803732111e-01 0.0000000000000000e+00 0.0000000000000000e+00  9.9999995803732111e-01 0.0000000000000000e+00 0.0000000000000000e+00  9.9999995803732111e-01 0.0000000000000000e+00 0.0000000000000000e+00  9.9999995803732111e-01 0.0000000000000000e+00 0.0000000000000000e+00  9.9999995803732111e-01 0.0000000000000000e+00 0.0000000000000000e+00  9.9999995803732111e-01 0.0000000000000000e+00 0.0000000000000000e+00  9.9999995803732111e-01 0.0000000000000000e+00 0.0000000000000000e+00  9.9999995803732111e-01 0.0000000000000000e+00 0.0000000000000000e+00  9.9999995803732111e-01 0.0000000000000000e+00 0.0000000000000000e+00  9.9999995803732111e-01 0.0000000000000000e+00 0.0000000000000000e+00  9.9999995803732111e-01 0.0000000000000000e+00 0.0000000000000000e+00  9.9999995803732111e-01 0.0000000000000000e+00 0.0000000000000000e+00  9.9999995803732111e-01 0.0000000000000000e+00 0.0000000000000000e+00  9.9999995803732111e-01 0.0000000000000000e+00 0.0000000000000000e+00  9.9999995803732111e-01 0.0000000000000000e+00 0.0000000000000000e+00  9.9999995803732111e-01 0.0000000000000000e+00 0.0000000000000000e+00  9.9999995803732111e-01 0.0000000000000000e+00 0.0000000000000000e+00  8.4273572495584825e-01 1.9149462593992327e-02 0.0000000000000000e+00  7.6185623441640871e-01 -6.4185655331041357e-03 0.0000000000000000e+00  6.8813116411031805e-01 3.8082608288463646e-02 0.0000000000000000e+00  7.3413108774789826e-01 -6.2649770283439002e-02 0.0000000000000000e+00  7.8711785140151158e-01 1.7482648908790559e-05 0.0000000000000000e+00  7.2540796938224872e-01 -5.5722578084635682e-02 0.0000000000000000e+00  7.5301566785828888e-01 1.3818704462230107e-03 0.0000000000000000e+00  7.9213641035005711e-01 6.9504543704304075e-02 0.0000000000000000e+00  4.1343820641759060e-01 -1.0830951823195467e-01 0.0000000000000000e+00  3.9437677478697430e-01 1.0791475297311375e-01 0.0000000000000000e+00  6.5663030822151081e-01 -2.7383273116701991e-02 0.0000000000000000e+00  6.7105132228635545e-01 5.0296288362822799e-03 0.0000000000000000e+00  3.9894151298140618e-01 1.0765606035810238e-01 0.0000000000000000e+00  2.7809044146799489e-01 -9.4774703304504257e-02 0.0000000000000000e+00  8.3133979871613994e-01 3.0259221293208266e-02 0.0000000000000000e+00  9.5485155032686786e-01 -1.8019440606242814e-02 0.0000000000000000e+00  6.6317989767906027e-01 1.8340181315618698e-02 0.0000000000000000e+00  6.3674915427376866e-01 -4.2844033418179316e-03 0.0000000000000000e+00  6.3938892005204506e-01 -1.6485378736792108e-03 0.0000000000000000e+00  6.2469546511255281e-01 5.0827023215893677e-03 0.0000000000000000e+00  4.6683528974044242e-01 -1.3899630551051890e-02 0.0000000000000000e+00  1.4378051381415932e-01 1.1243726751969577e-01 0.0000000000000000e+00  9.6058751451163923e-02 2.8745325036767577e-02 0.0000000000000000e+00  9.3850375175489692e-02 -2.7515536856046199e-02 0.0000000000000000e+00  1.4285061618700623e-01 -1.1217559841760455e-01 0.0000000000000000e+00  6.3351167073110615e-01 -3.4082218109147445e-03 0.0000000000000000e+00  5.8555689374206543e-01 -1.2179224497886781e-02 0.0000000000000000e+00  5.9036094494338154e-01 1.3871478688402845e-03 0.0000000000000000e+00  4.5535563755761138e-01 4.3908281834766270e-02 0.0000000000000000e+00  7.6633905060299234e-01 -4.7865463422434005e-04 0.0000000000000000e+00  7.3213695178048654e-01 1.1973493513251370e-01 0.0000000000000000e+00  8.1895084954239017e-01 -9.8059024557030153e-02 0.0000000000000000e+00  9.3784417906713646e-01 3.9727596807590693e-02 0.0000000000000000e+00  7.9803455934416878e-01 -8.5748711759608007e-02 0.0000000000000000e+00  4.6620316160006986e-01 1.1110408789392012e-02 0.0000000000000000e+00  8.0899600866120025e-01 -2.4129504419951025e-03 0.0000000000000000e+00  4.7607699150555755e-01 7.2179383685484228e-03 0.0000000000000000e+00  7.6478686900579929e-01 6.9099212026791263e-05 0.0000000000000000e+00  5.0957394952440949e-01 2.1241693291336409e-03 0.0000000000000000e+00  7.8784809990346627e-01 8.7790873148729451e-03 0.0000000000000000e+00  4.1507279867624264e-01 -3.6805002998586175e-02 0.0000000000000000e+00  4.0413877487930472e-01 3.1276257527847309e-02 0.0000000000000000e+00  4.6689879895091640e-01 -4.0483357455644672e-02 0.0000000000000000e+00  7.9730923893361905e-01 -2.9817563384175540e-02 0.0000000000000000e+00  7.7438679728206006e-01 5.6396866689470328e-04 0.0000000000000000e+00  4.0441494543672907e-01 1.9179582495162384e-01 0.0000000000000000e+00  4.6816307445761307e-01 9.3235894733753336e-02 0.0000000000000000e+00  2.0709337878420653e-01 5.7609940254621850e-02 0.0000000000000000e+00  4.4525586245412602e-01 -9.2260854859597827e-02 0.0000000000000000e+00  2.0722528014883179e-01 -5.7340545847372790e-02 0.0000000000000000e+00  4.0823036550951447e-01 -1.9209212561896388e-01 0.0000000000000000e+00  4.7321751701747788e-01 -1.8465438904223621e-03 0.0000000000000000e+00  3.7061823570062963e-01 7.0911703108483354e-02 0.0000000000000000e+00  2.8170371543162820e-01 -5.5741994813780761e-02 0.0000000000000000e+00  9.0818986959972270e-01 1.3175045097636048e-02 0.0000000000000000e+00  4.6618415631945476e-01 -4.9100324445599496e-03 0.0000000000000000e+00  6.6750454495682809e-01 -1.7361548919890982e-01 0.0000000000000000e+00  4.1299614048814265e-01 2.1187852140953544e-02 0.0000000000000000e+00  4.3581643762548877e-01 1.6635635802582770e-03 0.0000000000000000e+00  7.5118311912063740e-01 9.4663732500293668e-02 0.0000000000000000e+00  7.6412065488849468e-01 4.2225147599264977e-03 0.0000000000000000e+00  8.9920489923926350e-01 -1.8049360209581453e-02 0.0000000000000000e+00  9.9050619836941389e-01 7.3492232530791256e-03 0.0000000000000000e+00  7.2300066023950627e-01 -2.2865256611606806e-03 0.0000000000000000e+00  4.3454642701328844e-01 -6.6365165836097383e-04 0.0000000000000000e+00  9.5362678278971058e-01 -3.3548054198641986e-02 0.0000000000000000e+00  6.8276359244531371e-01 -2.4950108136123125e-02 0.0000000000000000e+00  3.9633534172725671e-01 -1.3179692868382277e-02 0.0000000000000000e+00  8.1321974203181924e-01 -1.6219353975420583e-02 0.0000000000000000e+00  6.4386967398673067e-01 1.8255915029575992e-01 0.0000000000000000e+00  8.0631356416596300e-01 1.4113302299973591e-02 0.0000000000000000e+00  9.5493525734638607e-01 1.6961203377015576e-02 0.0000000000000000e+00  3.8046076119586936e-01 -3.4906843177968014e-03 0.0000000000000000e+00  8.6325841042722251e-01 1.0258743733349243e-01 0.0000000000000000e+00  6.4777164795869202e-01 -9.3958583679282243e-03 0.0000000000000000e+00  7.1568250871335914e-01 -6.2939918812788256e-03 0.0000000000000000e+00  6.6151948889068235e-01 1.6410905475083108e-02 0.0000000000000000e+00  6.0604207554113887e-01 -9.3806283295423398e-02 0.0000000000000000e+00  3.7297783388032146e-01 8.2426882640234990e-03 0.0000000000000000e+00  7.5761559017299585e-01 -8.9791018970289752e-02 0.0000000000000000e+00  4.1373268893942311e-01 -1.2809552223832755e-03 0.0000000000000000e+00  3.7821342472299796e-01 1.4113108651429240e-01 0.0000000000000000e+00  4.3424860960225342e-01 -3.8004120917830654e-02 0.0000000000000000e+00  4.3770830621640594e-01 3.8418226817844417e-02 0.0000000000000000e+00  3.7791826917736804e-01 -1.4139509167190900e-01 0.0000000000000000e+00  8.5022635854905204e-01 -6.4466061115162981e-02 0.0000000000000000e+00  7.2343613556066322e-01 1.1250305590769026e-02 0.0000000000000000e+00  6.9342448561600356e-01 5.4828424226013188e-02 0.0000000000000000e+00  8.2161983439296515e-01 -1.0646932052395228e-02 0.0000000000000000e+00  7.3037395411484962e-01 1.4129170726410447e-03 0.0000000000000000e+00  7.1196960316097513e-01 -9.8713849100114256e-04 0.0000000000000000e+00  3.9679488751097630e-01 -2.2322482086640301e-03 0.0000000000000000e+00  6.0482125515807783e-01 -9.3544799957022445e-02 0.0000000000000000e+00  9.9516602043063318e-01 -4.5965440224259094e-03 0.0000000000000000e+00  6.1329493609838293e-01 3.6026463092885298e-02 0.0000000000000000e+00  3.8700319327685617e-01 3.2044112267440353e-03 0.0000000000000000e+00  4.2105073765495832e-01 -9.6363644147451182e-04 0.0000000000000000e+00  3.9348186332286694e-01 5.3222287322582699e-04 0.0000000000000000e+00  4.1344394510357213e-01 2.1648105744362361e-03 0.0000000000000000e+00  7.2984651807994261e-01 6.2224407103400091e-03 0.0000000000000000e+00  6.2385939685924874e-01 1.0003739384350824e-01 0.0000000000000000e+00  6.9760087701484086e-01 9.5856938402919456e-04 0.0000000000000000e+00  1.0684899562975252e-01 -4.8041804051428452e-02 0.0000000000000000e+00  5.4563212223462942e-01 6.6403075135421735e-02 0.0000000000000000e+00  6.8061400829959318e-01 -1.6617390521207764e-02 0.0000000000000000e+00  7.3027909451557627e-01 3.0693425920671766e-03 0.0000000000000000e+00  1.0662741702165759e-01 4.7746197109437928e-02 0.0000000000000000e+00  -9.3015913183591894e-03 3.0824687080950163e-02 0.0000000000000000e+00  -1.7701592261099873e-02 3.2602330021436379e-02 0.0000000000000000e+00  -1.7763094643945803e-02 -3.2567461539220438e-02 0.0000000000000000e+00  8.0450762638416256e-03 -3.6353915444086893e-02 0.0000000000000000e+00  3.7854144337901868e-01 8.3744310829808578e-04 0.0000000000000000e+00  3.1916162765202111e-01 -1.5329334721114980e-02 0.0000000000000000e+00  8.9206102833993162e-01 -2.6198231141773203e-02 0.0000000000000000e+00  7.3585606647018309e-01 -4.8431602781835578e-03 0.0000000000000000e+00  9.4378510498237478e-01 3.7460999884022100e-02 0.0000000000000000e+00  2.3049729107053868e-01 -2.5432064024758883e-02 0.0000000000000000e+00  7.2060164575673780e-01 -1.3254475830252004e-03 0.0000000000000000e+00  3.3383558436377386e-01 2.7688230189950183e-03 0.0000000000000000e+00  7.5125091113397546e-01 -1.0387761694944609e-03 0.0000000000000000e+00  6.6602610949390173e-01 -2.0335541719798403e-01 0.0000000000000000e+00  8.1624010534438640e-01 7.6406549876333232e-02 0.0000000000000000e+00  8.2910327840940867e-01 -4.0945632536974821e-02 0.0000000000000000e+00  3.3797595879486220e-01 -4.4306618176825135e-03 0.0000000000000000e+00  7.2741231638116222e-01 1.3769096053597757e-03 0.0000000000000000e+00  1.0854694291051969e-01 3.8400794855130468e-02 0.0000000000000000e+00  7.4918148918182648e-01 -9.2552963667196543e-03 0.0000000000000000e+00  7.6129669606234229e-01 5.9495600235577296e-02 0.0000000000000000e+00  9.8390633264600080e-01 1.5632386427310126e-02 0.0000000000000000e+00  2.1230861323845771e-01 2.1510266733508341e-02 0.0000000000000000e+00  7.6363751606359664e-01 -1.3716645211929914e-02 0.0000000000000000e+00  8.9512853077369181e-01 -1.0860120282400784e-01 0.0000000000000000e+00  3.2360697577620157e-01 -1.2654797637350198e-02 0.0000000000000000e+00  7.7010146917844458e-01 -5.1706784014884737e-04 0.0000000000000000e+00  9.4354345658217442e-01 -3.8665839875129809e-02 0.0000000000000000e+00  8.1461593009185473e-01 1.6380896066507281e-01 0.0000000000000000e+00  9.4197556747680478e-01 3.9633186278617352e-02 0.0000000000000000e+00  8.1600273319322003e-01 -1.6718820490306976e-01 0.0000000000000000e+00  6.5401003683069536e-01 -4.9998189442301035e-02 0.0000000000000000e+00  9.4360677789426473e-02 -3.8625761595214386e-02 0.0000000000000000e+00  2.2511356470771318e-01 3.0744673821304639e-02 0.0000000000000000e+00  2.6958552280816050e-01 1.7668369138608281e-02 0.0000000000000000e+00  5.4702544034946332e-01 2.5578226709884293e-02 0.0000000000000000e+00  7.8314603850726372e-01 2.6800505569361963e-02 0.0000000000000000e+00  6.1717158416504614e-01 1.6754700650430921e-03 0.0000000000000000e+00  2.8789013667639696e-01 -4.5865931852852064e-03 0.0000000000000000e+00  8.8469765457875871e-01 -7.3188291775237203e-03 0.0000000000000000e+00  6.2028333479903808e-01 -4.1248084986558041e-02 0.0000000000000000e+00  2.4591421046911910e-01 2.5360783564310238e-03 0.0000000000000000e+00  2.0273347518722890e-01 -2.1961135563294324e-02 0.0000000000000000e+00  5.9565539860364791e-01 -1.6016645185301637e-03 0.0000000000000000e+00  3.0994688081968108e-01 1.0154259707793743e-02 0.0000000000000000e+00  7.4860623143882321e-01 2.8156657178697855e-03 0.0000000000000000e+00  6.7409917437957212e-01 2.2936633535030437e-03 0.0000000000000000e+00  5.7380432470917875e-01 7.3876921640151898e-03 0.0000000000000000e+00  2.5447379967033318e-01 6.7222837570572068e-03 0.0000000000000000e+00  7.7810515701370953e-01 1.0349036583062776e-02 0.0000000000000000e+00  7.4396350649267340e-01 1.9847749829330869e-02 0.0000000000000000e+00  4.8043830396212861e-01 -6.0106117397487328e-02 0.0000000000000000e+00  6.2734393111056885e-01 7.4970819292840135e-02 0.0000000000000000e+00  9.5166773860657383e-01 -3.8360997434137241e-02 0.0000000000000000e+00  7.7138364427151651e-01 -1.0806388267529802e-03 0.0000000000000000e+00  7.5969592484305937e-01 -3.2692945029639929e-04 0.0000000000000000e+00  7.8155503104559243e-01 2.5258575279811958e-05 0.0000000000000000e+00  6.5940002470045800e-01 2.6114751353253730e-02 0.0000000000000000e+00  4.9478832252319199e-01 -1.7598082986980687e-01 0.0000000000000000e+00  6.7331956552363093e-01 2.0130973676209507e-01 0.0000000000000000e+00  2.5902913582695819e-01 5.4419443242510442e-04 0.0000000000000000e+00  5.9941072841227050e-01 -3.6274138899293533e-02 0.0000000000000000e+00  5.7597764485064684e-01 1.3080633644193112e-02 0.0000000000000000e+00  6.1166541052379930e-01 -1.6918487026353335e-01 0.0000000000000000e+00  6.1851467258625648e-01 1.6633982820678403e-01 0.0000000000000000e+00  7.6582868479119182e-01 6.2708983890169515e-05 0.0000000000000000e+00  7.9585193705599855e-01 1.4654130115267720e-03 0.0000000000000000e+00  7.5449740146564126e-01 6.5742191522150675e-02 0.0000000000000000e+00  7.4578428508976302e-01 -7.0729664650625218e-02 0.0000000000000000e+00  2.9076417572236024e-01 -8.9751365614450360e-04 0.0000000000000000e+00  5.3340510767113647e-01 3.4564224901439233e-02 0.0000000000000000e+00  5.3338258078336720e-01 -3.4586115797577616e-02 0.0000000000000000e+00  2.9084780999930587e-01 -1.2626560968340056e-01 0.0000000000000000e+00  5.9674874878457429e-01 3.6319275413438656e-03 0.0000000000000000e+00  5.3093433913123778e-01 1.1113109858895294e-01 0.0000000000000000e+00  8.5419249306294009e-01 -2.4457044718749657e-03 0.0000000000000000e+00  5.8110950661175698e-01 8.8530461353423595e-04 0.0000000000000000e+00  6.0126142742971878e-01 -9.3142301241635106e-04 0.0000000000000000e+00  5.7894040805005609e-01 6.5835239661510567e-03 0.0000000000000000e+00  2.1256142372918907e-01 8.4973259885986321e-02 0.0000000000000000e+00  4.9508088647733733e-01 -1.1276076937627862e-01 0.0000000000000000e+00  6.2145845929340959e-01 -8.7936086064005579e-03 0.0000000000000000e+00  6.2975031569690099e-01 -2.2528180124065946e-03 0.0000000000000000e+00  2.6010235398863840e-01 -5.6537928686439332e-04 0.0000000000000000e+00  2.4814113882913030e-01 -4.1109510967199366e-03 0.0000000000000000e+00  8.0688777759300057e-01 -3.9834497062965400e-02