<?xml version="1.0"?>
<VTKFile type="UnstructuredGrid"  version="0.1"  >
<UnstructuredGrid>
<Piece  NumberOfPoints="406" NumberOfCells="722">
<Points>
<DataArray  type="Float64"  NumberOfComponents="3"  format="ascii">-6 -2 0  -6 2 0  6 2 0  6 -2 0  -2.8 0 0  -1.2 0 0  -5.500000000001853 -2 0  -5.000000000003705 -2 0  -4.500000000005556 -2 0  -4.000000000007409 -2 0  -3.50000000000926 -2 0  -3.000000000011112 -2 0  -2.500000000012963 -2 0  -2.000000000014814 -2 0  -1.500000000016665 -2 0  -1.000000000018516 -2 0  -0.5000000000203677 -2 0  -2.204547655537681e-11 -2 0  0.4999999999796305 -2 0  0.9999999999814779 -2 0  1.499999999983327 -2 0  1.999999999985175 -2 0  2.499999999987029 -2 0  2.999999999988882 -2 0  3.499999999990735 -2 0  3.999999999992589 -2 0  4.49999999999444 -2 0  4.999999999996293 -2 0  5.499999999998147 -2 0  6 -1.500000000001387 0  6 -1.000000000002774 0  6 -0.5000000000041616 0  6 -5.505595979116151e-12 0  6 0.4999999999958384 0  6 0.9999999999972258 0  6 1.499999999998613 0  5.500000000001853 2 0  5.000000000003705 2 0  4.500000000005556 2 0  4.000000000007409 2 0  3.50000000000926 2 0  3.000000000011112 2 0  2.500000000012963 2 0  2.000000000014814 2 0  1.500000000016665 2 0  1.000000000018516 2 0  0.5000000000203677 2 0  2.204547655537681e-11 2 0  -0.4999999999796305 2 0  -0.9999999999814779 2 0  -1.499999999983327 2 0  -1.999999999985175 2 0  -2.499999999987029 2 0  -2.999999999988882 2 0  -3.499999999990735 2 0  -3.999999999992589 2 0  -4.49999999999444 2 0  -4.999999999996293 2 0  -5.499999999998147 2 0  -6 1.500000000001387 0  -6 1.000000000002774 0  -6 0.5000000000041616 0  -6 5.505595979116151e-12 0  -6 -0.4999999999958384 0  -6 -0.9999999999972258 0  -6 -1.499999999998613 0  -2.776753453941174 -0.1914525314286965 0  -2.708364820523325 -0.3717785376335722 0  -2.598808598538216 -0.5304981265911284 0  -2.454451797386757 -0.65838709271366 0  -2.283683909636528 -0.748012994147384 0  -2.096429344207466 -0.7941670992780535 0  -1.903570655798842 -0.7941670992788195 0  -1.716316090368095 -0.7480129941491368 0  -1.545548202616307 -0.6583870927157747 0  -1.401191401463757 -0.530498126593356 0  -1.291635179477527 -0.371778537635196 0  -1.223246546059047 -0.1914525314295925 0  -1.223246546058803 0.1914525314286035 0  -1.291635179476594 0.3717785376334188 0  -1.401191401461634 0.5304981265909601 0  -1.545548202612898 0.6583870927134221 0  -1.716316090363093 0.7480129941472402 0  -1.903570655792394 0.7941670992780367 0  -2.096429344201276 0.7941670992788055 0  -2.283683909631911 0.7480129941491347 0  -2.454451797383697 0.6583870927157729 0  -2.598808598536385 0.530498126593196 0  -2.70836482052258 0.3717785376349917 0  -2.776753453940975 0.1914525314295042 0  0.4588466633941945 0.2704149791022056 0  -4.424312812173863 0.2760319703992994 0  -3.803977598762586 -0.6841584599595646 0  -0.1330968762779425 -0.6798763971615133 0  2.451109587541276 3.169800318630399e-13 0  -3.563610936250569 0.5929994091167295 0  4.204753319582647 0.2820669554523581 0  -0.4390897559348154 0.6178095532273566 0  -3.041446812595122 1.175550440315544 0  -0.9622132806516797 1.132103015222783 0  1.069493318942931 -0.773608156980569 0  -4.924330687080279 -0.7127064269610045 0  -3.024693497948964 -1.195179289656404 0  -0.9648749555625579 -1.256854520022574 0  -3.443624282349383 -0.2044158249759613 0  -0.5611500783757608 -0.1747080110423833 0  1.60270880116926 0.7487034276124258 0  3.488352576142236 -0.8228939860777884 0  4.816375011670135 -0.8163750116689444 0  3.243628045085357 0.8578172796997985 0  -4.228632884234073 1.228069101636678 0  -2.365220384435482 -1.356128547810356 0  -1.637465979486354 1.3571687267915 0  -1.642380978561139 -1.359365080147485 0  -2.362988915989869 1.356737096243695 0  -5.134120367293631 0.8356299802910161 0  2.077496878467794 -0.9514080034522553 0  4.960859291178299 0.9608592911785537 0  0.3293120056474302 1.148965409695154 0  -5.157560560414062 0.09447106214747865 0  -3.14779387667392 -0.6330563038825547 0  -3.148134455585257 0.4354299640428653 0  -0.8464439673630421 0.4159277415926296 0  -0.9918125625721008 -0.7191748422889824 0  -4.355349213295776 -1.234510499778242 0  1.582074659164868 -0.06850205959954866 0  2.400584045214166 1.204278622181321 0  5.102831660739063 0.03453404176596848 0  4.083259768981113 1.154272958349666 0  -3.992394834362243 -0.1621022234411988 0  0.4290302718942113 -1.225465289645401 0  -3.681487986394671 -1.310544246656267 0  -3.640289698916164 1.187023654838123 0  0.468851680921228 -0.447055967952278 0  3.315209904217932 0.05667935655546536 0  -2.541160649745046 -1.046980928586996 0  -1.45196684542695 1.044189935346116 0  -2.000844595891861 -1.207983108473125 0  -1.453092202970521 -1.061139264918894 0  -2.000050543938391 1.207806685704176 0  -2.548033154566413 1.04418993534851 0  4.13054585796652 -1.232871249381608 0  -0.3301617095463629 1.221692405319566 0  -0.2880491989587189 -1.359626628407983 0  -0.0758941643813178 0.132275811829787 0  2.826389221580753 -1.233168480096227 0  -2.922070412327736 0.7575752117792038 0  1.003070890178416 1.271347915034201 0  -5.319521816151902 -1.310543894393663 0  -1.070407062963812 0.7877698545098388 0  -4.562499863038985 -0.2302396981426722 0  -3.164226661545047 0.07179577787350272 0  -0.9091377812900333 0.132454654016971 0  4.116029045943655 -0.4851826871817362 0  5.316659189209927 -1.316659189208741 0  -0.9498828454673396 -0.4149758979014553 0  -4.037769805263969 0.6896174350675625 0  1.431664772855882 -1.327784137638992 0  -3.646693623568034 0.1600006358878044 0  -2.878371345483476 -0.7910345833001061 0  1.062603041385242 0.2894765870627741 0  -0.547955103783681 0.1635272504420374 0  -4.804809838419659 1.41016301576038 0  -3.042895319571192 -0.3694931303482478 0  -4.59252578392403 0.792267765362792 0  2.823271260730033 -0.5472430318427347 0  -4.28575390662405 -0.7521491832384866 0  -0.5524005545121191 -0.9037367558558163 0  1.815219025072439 1.388812135783969 0  -1.288398729718543 -0.8178399475601057 0  -5.424388493366639 1.35375165044146 0  -2.256991952837567 -1.049538527273222 0  -1.739586738723494 -1.052327527873255 0  -1.738827359988536 1.050180627239116 0  -2.257795730428802 1.049701225145305 0  -0.62222340523776 -0.5483611729237363 0  2.065188519029698 0.5424877383589943 0  0.1055865106318892 0.7347782870471022 0  1.013082573993895 -0.2061877611231605 0  -5.428323520618333 -0.4386412085227075 0  5.374041502384443 -0.5304401760993408 0  3.435185060219232 -1.377658617395091 0  -3.302377238490527 0.8841390072780534 0  -0.9902123298072768 -0.124175295282554 0  0.7186958547669859 0.8724503317343631 0  2.941237214953417 1.390391532351976 0  4.708037787864423 -1.340276032051348 0  5.395029680982659 1.395029680983341 0  3.591022587550188 1.348260650408605 0  2.759385971589342 0.4857447325740718 0  -0.6832705231418494 0.8879387563573758 0  5.437781298507145 0.5981501503262471 0  -2.698603003287285 1.617130043745112 0  -3.463358189947519 -1.013588318179017 0  1.710866040171871 -0.6978716337870808 0  3.642182982762737 0.4555704362064124 0  -2.699802128031161 -1.618310703146212 0  -1.3020054856637 1.619819977935582 0  -2.000000000004996 -1.566396763829867 0  -1.999999999994794 1.566396763830688 0  -1.247812462071684 -1.595232739507426 0  4.59429106759859 1.420052135572917 0  0.9448382581152466 -1.440259145469251 0  -0.116376100998861 -0.2606209011258676 0  -4.774521510507792 0.4245390872783272 0  -2.983910172370106 -0.1208000607277856 0  -3.353983741142061 1.576062863985777 0  -5.473352579109997 0.4917619255280954 0  -4.828650470275986 -1.493148538517745 0  4.639973657165532 -0.2833178611094909 0  -2.660279445404468 0.7699932347178977 0  -1.335045190775955 0.7744876666923373 0  -3.395669172689978 0.2584951122361346 0  2.279110606119369 -1.465899541383697 0  4.734317729212562 0.4520963557364723 0  -0.6334913028224612 1.584213953723378 0  2.121854101359879 -0.4289611127787379 0  -3.474459720833238 -0.4977581316675216 0  -1.066539898844178 0.3411379476537602 0  -3.361849707555382 -1.611428512420182 0  -4.099039818938317 0.3306400369415774 0  -2.935324777364672 0.354721898811665 0  -3.973578595052027 1.482940358734671 0  3.784450148635689 -0.0702780807301525 0  -1.191348122671212 -0.5614501189722798 0  -2.838672605956353 -0.5493179047027598 0  -1.184983441257359 0.5617520886612424 0  -2.811184099847449 0.5574240755049175 0  0.2702752249355158 -0.8003643570420809 0  -0.6945947797857237 -1.593893965175195 0  0.001175881878679056 1.504521009023778 0  0.6072931735145096 1.501814722697789 0  -3.991896293645949 -1.047264188412552 0  -3.734097395159253 -0.3261671578666079 0  -5.539652387691843 -0.8857154182585802 0  -4.395061924111849 1.563293728588296 0  0.2258327611651416 -0.08745142624872881 0  -3.774816634825771 0.8676973328379478 0  2.208484493569073 1.6256686312487 0  0.1309939514660535 -1.566169703482512 0  -5.551414360955331 0.9459842275970113 0  -4.04734138658365 -1.51163984963472 0  -4.947145019546805 -0.3299925153029702 0  4.320410447198621 0.6970857582435144 0  -4.707557346727139 -1.000565649857444 0  1.353711468973986 1.582551234446199 0  1.674156483558973 0.3266252271732694 0  -4.039105552973997 -0.4537604746027087 0  0.01051727619263377 -1.088858357362194 0  -0.2234942609176301 0.8619127912343982 0  -2.95903482691863 0.1219373374385197 0  -4.682467695920681 0.0804575682243254 0  5.535750224195656 -0.1525732643419722 0  -4.290083947414376 -0.0005258314026840717 0  1.136102562417988 0.7655312464039168 0  -2.816589394567214 0.9927597419785312 0  -2.645374456162409 -0.7645902451387543 0  4.18414576655837 1.624276131878667 0  0.7127337088822223 -0.9006358935856398 0  1.972418102153911 0.9727040774616764 0  -2.42199174813501 0.8591219219254587 0  -2.418604734200992 -0.8552987735117754 0  -5.573597213364169 -0.03612430678117123 0  2.024792870869397 0.05574071630590883 0  -1.578875191508968 0.861424470724936 0  -1.54706008231699 -0.8630049102346303 0  3.848662181064435 -1.569601980075533 0  -2.000000000003871 -0.9746445732264465 0  -1.99999999
[...]
<PointData  Vectors="f_22"> 
<DataArray  type="Float64"  Name="f_22"  NumberOfComponents="3" format="ascii">0.0000000000000000e+00 0.0000000000000000e+00 0.0000000000000000e+00  0.0000000000000000e+00 0.0000000000000000e+00 0.0000000000000000e+00  0.0000000000000000e+00 0.0000000000000000e+00 0.0000000000000000e+00  0.0000000000000000e+00 0.0000000000000000e+00 0.0000000000000000e+00  9.9999995690096377e-01 0.0000000000000000e+00 0.0000000000000000e+00  9.9999995690096377e-01 0.0000000000000000e+00 0.0000000000000000e+00  0.0000000000000000e+00 0.0000000000000000e+00 0.0000000000000000e+00  0.0000000000000000e+00 0.0000000000000000e+00 0.0000000000000000e+00  0.0000000000000000e+00 0.0000000000000000e+00 0.0000000000000000e+00  0.0000000000000000e+00 0.0000000000000000e+00 0.0000000000000000e+00  0.0000000000000000e+00 0.0000000000000000e+00 0.0000000000000000e+00  0.0000000000000000e+00 0.0000000000000000e+00 0.0000000000000000e+00  0.0000000000000000e+00 0.0000000000000000e+00 0.0000000000000000e+00  0.0000000000000000e+00 0.0000000000000000e+00 0.0000000000000000e+00  0.0000000000000000e+00 0.0000000000000000e+00 0.0000000000000000e+00  0.0000000000000000e+00 0.0000000000000000e+00 0.0000000000000000e+00  0.0000000000000000e+00 0.0000000000000000e+00 0.0000000000000000e+00  0.0000000000000000e+00 0.0000000000000000e+00 0.0000000000000000e+00  0.0000000000000000e+00 0.0000000000000000e+00 0.0000000000000000e+00  0.0000000000000000e+00 0.0000000000000000e+00 0.0000000000000000e+00  0.0000000000000000e+00 0.0000000000000000e+00 0.0000000000000000e+00  0.0000000000000000e+00 0.0000000000000000e+00 0.0000000000000000e+00  0.0000000000000000e+00 0.0000000000000000e+00 0.0000000000000000e+00  0.0000000000000000e+00 0.0000000000000000e+00 0.0000000000000000e+00  0.0000000000000000e+00 0.0000000000000000e+00 0.0000000000000000e+00  0.0000000000000000e+00 0.0000000000000000e+00 0.0000000000000000e+00  0.0000000000000000e+00 0.0000000000000000e+00 0.0000000000000000e+00  0.0000000000000000e+00 0.0000000000000000e+00 0.0000000000000000e+00  0.0000000000000000e+00 0.0000000000000000e+00 0.0000000000000000e+00  3.7766942656103908e-01 -2.9034887846960859e-04 0.0000000000000000e+00  6.2230020259353580e-01 -7.0624005722902351e-04 0.0000000000000000e+00  7.6525020741418337e-01 -6.5275164136600287e-04 0.0000000000000000e+00  8.1246676794339734e-01 -2.7059310094724603e-05 0.0000000000000000e+00  7.6519502083049229e-01 6.1694733334310416e-04 0.0000000000000000e+00  6.2235966825455358e-01 7.2577020745858258e-04 0.0000000000000000e+00  3.7772803237760699e-01 2.9752407519799688e-04 0.0000000000000000e+00  0.0000000000000000e+00 0.0000000000000000e+00 0.0000000000000000e+00  0.0000000000000000e+00 0.0000000000000000e+00 0.0000000000000000e+00  0.0000000000000000e+00 0.0000000000000000e+00 0.0000000000000000e+00  0.0000000000000000e+00 0.0000000000000000e+00 0.0000000000000000e+00  0.0000000000000000e+00 0.0000000000000000e+00 0.0000000000000000e+00  0.0000000000000000e+00 0.0000000000000000e+00 0.0000000000000000e+00  0.0000000000000000e+00 0.0000000000000000e+00 0.0000000000000000e+00  0.0000000000000000e+00 0.0000000000000000e+00 0.0000000000000000e+00  0.0000000000000000e+00 0.0000000000000000e+00 0.0000000000000000e+00  0.0000000000000000e+00 0.0000000000000000e+00 0.0000000000000000e+00  0.0000000000000000e+00 0.0000000000000000e+00 0.0000000000000000e+00  0.0000000000000000e+00 0.0000000000000000e+00 0.0000000000000000e+00  0.0000000000000000e+00 0.0000000000000000e+00 0.0000000000000000e+00  0.0000000000000000e+00 0.0000000000000000e+00 0.0000000000000000e+00  0.0000000000000000e+00 0.0000000000000000e+00 0.0000000000000000e+00  0.0000000000000000e+00 0.0000000000000000e+00 0.0000000000000000e+00  0.0000000000000000e+00 0.0000000000000000e+00 0.0000000000000000e+00  0.0000000000000000e+00 0.0000000000000000e+00 0.0000000000000000e+00  0.0000000000000000e+00 0.0000000000000000e+00 0.0000000000000000e+00  0.0000000000000000e+00 0.0000000000000000e+00 0.0000000000000000e+00  0.0000000000000000e+00 0.0000000000000000e+00 0.0000000000000000e+00  0.0000000000000000e+00 0.0000000000000000e+00 0.0000000000000000e+00  0.0000000000000000e+00 0.0000000000000000e+00 0.0000000000000000e+00  3.7655763545845150e-01 -5.9948458934052198e-04 0.0000000000000000e+00  6.2172848013336579e-01 -1.0431097390270275e-03 0.0000000000000000e+00  7.6589158195869667e-01 -8.3635633514802729e-04 0.0000000000000000e+00  8.1407633858822936e-01 -1.3075361056422227e-05 0.0000000000000000e+00  7.6652012956670701e-01 9.5411128833721110e-04 0.0000000000000000e+00  6.2199872282683921e-01 1.1077753548584847e-03 0.0000000000000000e+00  3.7665949872841142e-01 6.2017025933466558e-04 0.0000000000000000e+00  9.9999995690096377e-01 0.0000000000000000e+00 0.0000000000000000e+00  9.9999995690096377e-01 0.0000000000000000e+00 0.0000000000000000e+00  9.9999995690096377e-01 0.0000000000000000e+00 0.0000000000000000e+00  9.9999995690096377e-01 0.0000000000000000e+00 0.0000000000000000e+00  9.9999995690096377e-01 0.0000000000000000e+00 0.0000000000000000e+00  9.9999995690096377e-01 0.0000000000000000e+00 0.0000000000000000e+00  9.9999995690096377e-01 0.0000000000000000e+00 0.0000000000000000e+00  9.9999995690096377e-01 0.0000000000000000e+00 0.0000000000000000e+00  9.9999995690096377e-01 0.0000000000000000e+00 0.0000000000000000e+00  9.9999995690096377e-01 0.0000000000000000e+00 0.0000000000000000e+00  9.9999995690096377e-01 0.0000000000000000e+00 0.0000000000000000e+00  9.9999995690096377e-01 0.0000000000000000e+00 0.0000000000000000e+00  9.9999995690096377e-01 0.0000000000000000e+00 0.0000000000000000e+00  9.9999995690096377e-01 0.0000000000000000e+00 0.0000000000000000e+00  9.9999995690096377e-01 0.0000000000000000e+00 0.0000000000000000e+00  9.9999995690096377e-01 0.0000000000000000e+00 0.0000000000000000e+00  9.9999995690096377e-01 0.0000000000000000e+00 0.0000000000000000e+00  9.9999995690096377e-01 0.0000000000000000e+00 0.0000000000000000e+00  9.9999995690096377e-01 0.0000000000000000e+00 0.0000000000000000e+00  9.9999995690096377e-01 0.0000000000000000e+00 0.0000000000000000e+00  9.9999995690096377e-01 0.0000000000000000e+00 0.0000000000000000e+00  9.9999995690096377e-01 0.0000000000000000e+00 0.0000000000000000e+00  9.9999995690096377e-01 0.0000000000000000e+00 0.0000000000000000e+00  9.9999995690096377e-01 0.0000000000000000e+00 0.0000000000000000e+00  8.8749687078294903e-01 1.8766825871679885e-02 0.0000000000000000e+00  8.0794320437836431e-01 -5.1424648699267923e-03 0.0000000000000000e+00  7.3274395147982685e-01 3.0696233043379682e-02 0.0000000000000000e+00  7.7956782309888673e-01 -5.1873052014851068e-02 0.0000000000000000e+00  8.3489496779905081e-01 1.8251935053082511e-05 0.0000000000000000e+00  7.6744609374408268e-01 -4.4961455291546028e-02 0.0000000000000000e+00  8.0147847373229197e-01 1.2801679936139171e-03 0.0000000000000000e+00  8.3567774268236705e-01 4.8711411067145410e-02 0.0000000000000000e+00  4.7618420044936727e-01 -8.9016365720402030e-02 0.0000000000000000e+00  4.6462284368130569e-01 8.1795337335173524e-02 0.0000000000000000e+00  7.0303606933356078e-01 -2.6104629697396423e-02 0.0000000000000000e+00  7.1761813857596113e-01 3.9990196377147945e-03 0.0000000000000000e+00  4.6269264119001063e-01 8.8575121845576699e-02 0.0000000000000000e+00  3.5012941162380773e-01 -7.3274455282907672e-02 0.0000000000000000e+00  8.6525938482628317e-01 2.4270025272901723e-02 0.0000000000000000e+00  9.7699866751347841e-01 -9.1307995433314998e-03 0.0000000000000000e+00  7.0982107888553680e-01 1.7127237830591027e-02 0.0000000000000000e+00  6.8330721452238918e-01 -3.9909075585853873e-03 0.0000000000000000e+00  6.8592723033276726e-01 -1.5454603611009688e-03 0.0000000000000000e+00  6.7123787891473030e-01 4.7763029496440037e-03 0.0000000000000000e+00  5.1487949665445754e-01 -1.1025904453522615e-02 0.0000000000000000e+00  2.3659705885843568e-01 9.6623339340507541e-02 0.0000000000000000e+00  1.9258469185107394e-01 1.8357126203289109e-02 0.0000000000000000e+00  1.9052937905238607e-01 -1.7349184918195183e-02 0.0000000000000000e+00  2.3572680948976810e-01 -9.6442989819159941e-02 0.0000000000000000e+00  6.7995798123860884e-01 -2.7068888749657402e-03 0.0000000000000000e+00  6.3212278342687944e-01 -1.1559331502047306e-02 0.0000000000000000e+00  6.3628392870850770e-01 1.3024741288194417e-03 0.0000000000000000e+00  5.0284495598153667e-01 4.2088480771268158e-02 0.0000000000000000e+00  8.1437832557224477e-01 -3.6894885075220476e-04 0.0000000000000000e+00  7.7164785557398163e-01 9.6608792615921146e-02 0.0000000000000000e+00  8.4987365940842241e-01 -7.8378667850504125e-02 0.0000000000000000e+00  9.5785068575423660e-01 2.1448288737557671e-02 0.0000000000000000e+00  8.3923517273087311e-01 -5.7732059239166543e-02 0.0000000000000000e+00  5.1380946819896911e-01 8.7876817763501269e-03 0.0000000000000000e+00  8.5539913543477064e-01 -2.2468737287719958e-03 0.0000000000000000e+00  5.2244818590191233e-01 6.8672969331662883e-03 0.0000000000000000e+00  8.1386189361834604e-01 6.3106110740037517e-05 0.0000000000000000e+00  5.5546950682391993e-01 1.9778229875777220e-03 0.0000000000000000e+00  8.3093317137571177e-01 7.0970768810652831e-03 0.0000000000000000e+00  4.6317216072396927e-01 -3.5316137899276234e-02 0.0000000000000000e+00  4.5616721154753237e-01 2.5144902701558138e-02 0.0000000000000000e+00  5.1849299996257403e-01 -3.2540770078261984e-02 0.0000000000000000e+00  8.4213126476943889e-01 -2.9280628964372744e-02 0.0000000000000000e+00  8.2273944441771474e-01 5.2981921104477590e-04 0.0000000000000000e+00  4.7976770713212280e-01 1.6145152323049924e-01 0.0000000000000000e+00  5.4216600492469635e-01 7.1105490104730357e-02 0.0000000000000000e+00  3.0336822617848036e-01 5.3076861382667775e-02 0.0000000000000000e+00  5.2131638339874087e-01 -7.0211803933875924e-02 0.0000000000000000e+00  3.0348745231583057e-01 -5.2855660505648272e-02 0.0000000000000000e+00  4.8317549503993168e-01 -1.6154841419581034e-01 0.0000000000000000e+00  5.1907011206322573e-01 -1.6863218631897583e-03 0.0000000000000000e+00  4.2343592270158070e-01 6.1173055095279288e-02 0.0000000000000000e+00  3.3408789798681304e-01 -4.8977390784073281e-02 0.0000000000000000e+00  9.4792380348281269e-01 9.9970425929220043e-03 0.0000000000000000e+00  5.1236177490291257e-01 -4.6329869370040598e-03 0.0000000000000000e+00  7.1375938593638488e-01 -1.4154770103123340e-01 0.0000000000000000e+00  4.6086567125327188e-01 1.9963468610785722e-02 0.0000000000000000e+00  4.8163462645738908e-01 1.3277418346505597e-03 0.0000000000000000e+00  7.9770950453839695e-01 6.6114794173409708e-02 0.0000000000000000e+00  8.1075805242173971e-01 3.3871813888446132e-03 0.0000000000000000e+00  9.2083877103746448e-01 -1.4222882215800602e-02 0.0000000000000000e+00  9.9543221206859300e-01 2.9973532830118114e-03 0.0000000000000000e+00  7.7079784141585206e-01 -2.1184896198171901e-03 0.0000000000000000e+00  4.7963793034471491e-01 -6.1967375569961871e-04 0.0000000000000000e+00  9.6832698863328759e-01 -1.8401411261159965e-02 0.0000000000000000e+00  7.2813340800223125e-01 -2.0051614103755319e-02 0.0000000000000000e+00  4.4319833064647091e-01 -1.2304946998119822e-02 0.0000000000000000e+00  8.5141061380733551e-01 -1.3044987883642329e-02 0.0000000000000000e+00  6.9289232215594565e-01 1.4929052925308234e-01 0.0000000000000000e+00  8.5167927998373871e-01 1.3617450984381857e-02 0.0000000000000000e+00  9.7741847527904513e-01 8.5905319375784214e-03 0.0000000000000000e+00  4.2563582877075218e-01 -2.7260823104406475e-03 0.0000000000000000e+00  8.8774446647910343e-01 8.1628285851837429e-02 0.0000000000000000e+00  6.9410671658700873e-01 -7.4553238868163363e-03 0.0000000000000000e+00  7.6290617851288867e-01 -5.9819852953286274e-03 0.0000000000000000e+00  7.0756168222654714e-01 1.3157545532997550e-02 0.0000000000000000e+00  6.5947062807001477e-01 -7.1046597351840088e-02 0.0000000000000000e+00  4.1854711054848093e-01 7.7412939839373932e-03 0.0000000000000000e+00  8.0023540069700494e-01 -6.7064736995915281e-02 0.0000000000000000e+00  4.5904947293306325e-01 -1.0538511737710123e-03 0.0000000000000000e+00  4.5763203170168304e-01 1.2166839748235971e-01 0.0000000000000000e+00  5.0953967435802161e-01 -2.8159403649716239e-02 0.0000000000000000e+00  5.1257452130410874e-01 2.8552338323142409e-02 0.0000000000000000e+00  4.5735235863895590e-01 -1.2188527525115125e-01 0.0000000000000000e+00  8.8778510035523095e-01 -4.0263718167075600e-02 0.0000000000000000e+00  7.7037209611286783e-01 1.0646605704472133e-02 0.0000000000000000e+00  7.3867826874790576e-01 5.0155072665566930e-02 0.0000000000000000e+00  8.6680258468538485e-01 -1.0352583762540203e-02 0.0000000000000000e+00  7.7797190892151313e-01 1.1731636103016207e-03 0.0000000000000000e+00  7.5974936413032901e-01 -9.2797160405423034e-04 0.0000000000000000e+00  4.4196091913189955e-01 -2.0488062656125326e-03 0.0000000000000000e+00  6.5361332412653594e-01 -7.5885788700987306e-02 0.0000000000000000e+00  9.9754289916852290e-01 -1.8497624210134741e-03 0.0000000000000000e+00  6.5961591106533157e-01 3.5068020984246273e-02 0.0000000000000000e+00  4.3178215457323954e-01 3.0153754283678935e-03 0.0000000000000000e+00  4.6637969284061770e-01 -9.2059122586464221e-04 0.0000000000000000e+00  4.3791002099610993e-01 4.6522303478562356e-04 0.0000000000000000e+00  4.5856158178573536e-01 1.9956320750560631e-03 0.0000000000000000e+00  7.7721236242652525e-01 5.9351250580932371e-03 0.0000000000000000e+00  6.7889980932175564e-01 7.2927178118038477e-02 0.0000000000000000e+00  7.4507446028055169e-01 9.0440276472630301e-04 0.0000000000000000e+00  1.7326241580470808e-01 -4.0354383056320824e-02 0.0000000000000000e+00  5.9633729570577576e-01 5.3832038626556979e-02 0.0000000000000000e+00  7.2724134625796488e-01 -1.5558195716916716e-02 0.0000000000000000e+00  7.7805044798840250e-01 2.8573830103775862e-03 0.0000000000000000e+00  1.7289146644949790e-01 4.0102684810046342e-02 0.0000000000000000e+00  6.3555787809801256e-02 2.3534157073419059e-02 0.0000000000000000e+00  7.2451168017447401e-02 3.0104501287188581e-02 0.0000000000000000e+00  7.2398597707617474e-02 -3.0070464221543892e-02 0.0000000000000000e+00  8.1068134108982282e-02 -2.7931005613701605e-02 0.0000000000000000e+00  4.2257023979146879e-01 8.2384118813542636e-04 0.0000000000000000e+00  3.6553195362500657e-01 -1.4373410999167632e-02 0.0000000000000000e+00  9.3196158895779913e-01 -1.9678056594489381e-02 0.0000000000000000e+00  7.8281482793368096e-01 -3.8532983324830092e-03 0.0000000000000000e+00  9.5574413799024382e-01 2.9386671066619890e-02 0.0000000000000000e+00  2.8220821052825601e-01 -2.0621943967137159e-02 0.0000000000000000e+00  7.6805300996324100e-01 -1.0937537002297228e-03 0.0000000000000000e+00  3.7794131726122249e-01 2.1648618844576184e-03 0.0000000000000000e+00  7.9984362332826364e-01 -9.5660903949545842e-04 0.0000000000000000e+00  7.1340358395753456e-01 -1.6882399929746894e-01 0.0000000000000000e+00  8.4926466901372122e-01 5.7968622484213278e-02 0.0000000000000000e+00  8.6241556133612540e-01 -3.2794487730897534e-02 0.0000000000000000e+00  3.8257717368323491e-01 -4.2003813597377782e-03 0.0000000000000000e+00  7.7544422943305313e-01 1.2816902122969531e-03 0.0000000000000000e+00  1.6265524604060108e-01 3.2136715788018730e-02 0.0000000000000000e+00  7.9629773714822649e-01 -8.7688834576609420e-03 0.0000000000000000e+00  8.0060615454657191e-01 4.7940808046587534e-02 0.0000000000000000e+00  9.8936951492619585e-01 8.5315878768528128e-03 0.0000000000000000e+00  2.6136837625808773e-01 1.7438538232051583e-02 0.0000000000000000e+00  8.0799473387940746e-01 -1.1041178800097546e-02 0.0000000000000000e+00  9.1413238129146901e-01 -8.6206859596529711e-02 0.0000000000000000e+00  3.7063586120700487e-01 -1.0076267560932262e-02 0.0000000000000000e+00  8.1871494575740167e-01 -4.7936206653618156e-04 0.0000000000000000e+00  9.5699555365580180e-01 -2.6619744967690248e-02 0.0000000000000000e+00  8.4410844053333856e-01 1.3249552622929964e-01 0.0000000000000000e+00  9.5589180367809157e-01 2.7225590171920507e-02 0.0000000000000000e+00  8.4517382137756880e-01 -1.3572234690550983e-01 0.0000000000000000e+00  6.9946938860311969e-01 -4.7750955984481445e-02 0.0000000000000000e+00  1.4942438745009790e-01 -3.2146444788348542e-02 0.0000000000000000e+00  2.7236086666647491e-01 2.8237106839830058e-02 0.0000000000000000e+00  3.1478088237095581e-01 1.6734734535412844e-02 0.0000000000000000e+00  5.9496811384074377e-01 2.0474721534393385e-02 0.0000000000000000e+00  8.2386137912871149e-01 2.1626653269181298e-02 0.0000000000000000e+00  6.6351974700343830e-01 1.4267945779688931e-03 0.0000000000000000e+00  3.3013506416075711e-01 -3.5940727698830816e-03 0.0000000000000000e+00  9.2858880767489427e-01 -6.6672714670333606e-03 0.0000000000000000e+00  6.6696357853305355e-01 -3.3218181287789868e-02 0.0000000000000000e+00  2.8300920896530629e-01 2.4110960329051735e-03 0.0000000000000000e+00  2.4765391861836761e-01 -2.0425395295440470e-02 0.0000000000000000e+00  6.4192163727870710e-01 -1.3580636029992500e-03 0.0000000000000000e+00  3.5553704747246823e-01 8.1080948437880045e-03 0.0000000000000000e+00  7.9604228981194025e-01 2.2507877642271583e-03 0.0000000000000000e+00  7.2110086093314585e-01 2.1308023306870244e-03 0.0000000000000000e+00  6.2029428164450284e-01 5.8372758615103720e-03 0.0000000000000000e+00  2.9526978280157845e-01 6.2305391897065640e-03 0.0000000000000000e+00  8.2474136858355829e-01 9.6426896139397058e-03 0.0000000000000000e+00  7.8826864219595894e-01 1.6005199512993975e-02 0.0000000000000000e+00  5.2836793676885874e-01 -5.5207564667164165e-02 0.0000000000000000e+00  6.7557225350240180e-01 6.2534399496416662e-02 0.0000000000000000e+00  9.6195836964310644e-01 -3.0006432345640141e-02 0.0000000000000000e+00  8.1848202096725897e-01 -8.4040722710247804e-04 0.0000000000000000e+00  8.0871286016140576e-01 -3.1179171158650322e-04 0.0000000000000000e+00  8.2693126473965806e-01 2.8247550647350805e-05 0.0000000000000000e+00  7.0580307921108965e-01 2.4765904005281024e-02 0.0000000000000000e+00  5.5760030711982889e-01 -1.4534370724822876e-01 0.0000000000000000e+00  7.1966243493149940e-01 1.6729864615061127e-01 0.0000000000000000e+00  2.9532825549566982e-01 4.9129517265547628e-04 0.0000000000000000e+00  6.4575523823514192e-01 -3.5285455636589705e-02 0.0000000000000000e+00  6.2263785608816913e-01 1.2371023302934046e-02 0.0000000000000000e+00  6.6292537148194985e-01 -1.4434386888823694e-01 0.0000000000000000e+00  6.6878083334592686e-01 1.4198136650252735e-01 0.0000000000000000e+00  8.1422370013537859e-01 5.3383805515847675e-05 0.0000000000000000e+00  8.4314419917112948e-01 1.3771504748598582e-03 0.0000000000000000e+00  7.9114774176186975e-01 5.3225490181785330e-02 0.0000000000000000e+00  7.8444531004882034e-01 -5.6800053595976341e-02 0.0000000000000000e+00  3.3048546281376429e-01 -8.1050011450295228e-04 0.0000000000000000e+00  5.9329208927359378e-01 3.1328520312054492e-02 0.0000000000000000e+00  5.9326208416612869e-01 -3.1347459776969608e-02 0.0000000000000000e+00  3.6675008096766454e-01 -1.0533236418047166e-01 0.0000000000000000e+00  6.4310911140176574e-01 3.3905311067877800e-03 0.0000000000000000e+00  5.9908674792287531e-01 8.2704365551994521e-02 0.0000000000000000e+00  8.9908393070108283e-01 -2.4492349609845573e-03 0.0000000000000000e+00  6.2702561561423764e-01 8.2234642982241665e-04 0.0000000000000000e+00  6.4744178632929383e-01 -8.5507645231188464e-04 0.0000000000000000e+00  6.2538472136788337e-01 6.2380619680542084e-03 0.0000000000000000e+00  2.9698691318271025e-01 6.4347716581843115e-02 0.0000000000000000e+00  5.6532525108988529e-01 -8.3755905937774461e-02 0.0000000000000000e+00  6.6790521274469161e-01 -8.4001753015174475e-03 0.0000000000000000e+00  6.7617909757597616e-01 -2.1034838636662086e-03 0.0000000000000000e+00  2.9645789996430205e-01 -4.9555365456149954e-04 0.0000000000000000e+00  2.8651976737460372e-01 -3.8889559679374723e-03 0.0000000000000000e+00  8.5110233307221994e-01 -3.5798716291502893e-02 0.