<?xml version="1.0"?>
<VTKFile type="UnstructuredGrid"  version="0.1"  >
<UnstructuredGrid>
<Piece  NumberOfPoints="406" NumberOfCells="722">
<Points>
<DataArray  type="Float64"  NumberOfComponents="3"  format="ascii">-6 -2 0  -6 2 0  6 2 0  6 -2 0  -2.8 0 0  -1.2 0 0  -5.500000000001853 -2 0  -5.000000000003705 -2 0  -4.500000000005556 -2 0  -4.000000000007409 -2 0  -3.50000000000926 -2 0  -3.000000000011112 -2 0  -2.500000000012963 -2 0  -2.000000000014814 -2 0  -1.500000000016665 -2 0  -1.000000000018516 -2 0  -0.5000000000203677 -2 0  -2.204547655537681e-11 -2 0  0.4999999999796305 -2 0  0.9999999999814779 -2 0  1.499999999983327 -2 0  1.999999999985175 -2 0  2.499999999987029 -2 0  2.999999999988882 -2 0  3.499999999990735 -2 0  3.999999999992589 -2 0  4.49999999999444 -2 0  4.999999999996293 -2 0  5.499999999998147 -2 0  6 -1.500000000001387 0  6 -1.000000000002774 0  6 -0.5000000000041616 0  6 -5.505595979116151e-12 0  6 0.4999999999958384 0  6 0.9999999999972258 0  6 1.499999999998613 0  5.500000000001853 2 0  5.000000000003705 2 0  4.500000000005556 2 0  4.000000000007409 2 0  3.50000000000926 2 0  3.000000000011112 2 0  2.500000000012963 2 0  2.000000000014814 2 0  1.500000000016665 2 0  1.000000000018516 2 0  0.5000000000203677 2 0  2.204547655537681e-11 2 0  -0.4999999999796305 2 0  -0.9999999999814779 2 0  -1.499999999983327 2 0  -1.999999999985175 2 0  -2.499999999987029 2 0  -2.999999999988882 2 0  -3.499999999990735 2 0  -3.999999999992589 2 0  -4.49999999999444 2 0  -4.999999999996293 2 0  -5.499999999998147 2 0  -6 1.500000000001387 0  -6 1.000000000002774 0  -6 0.5000000000041616 0  -6 5.505595979116151e-12 0  -6 -0.4999999999958384 0  -6 -0.9999999999972258 0  -6 -1.499999999998613 0  -2.776753453941174 -0.1914525314286965 0  -2.708364820523325 -0.3717785376335722 0  -2.598808598538216 -0.5304981265911284 0  -2.454451797386757 -0.65838709271366 0  -2.283683909636528 -0.748012994147384 0  -2.096429344207466 -0.7941670992780535 0  -1.903570655798842 -0.7941670992788195 0  -1.716316090368095 -0.7480129941491368 0  -1.545548202616307 -0.6583870927157747 0  -1.401191401463757 -0.530498126593356 0  -1.291635179477527 -0.371778537635196 0  -1.223246546059047 -0.1914525314295925 0  -1.223246546058803 0.1914525314286035 0  -1.291635179476594 0.3717785376334188 0  -1.401191401461634 0.5304981265909601 0  -1.545548202612898 0.6583870927134221 0  -1.716316090363093 0.7480129941472402 0  -1.903570655792394 0.7941670992780367 0  -2.096429344201276 0.7941670992788055 0  -2.283683909631911 0.7480129941491347 0  -2.454451797383697 0.6583870927157729 0  -2.598808598536385 0.530498126593196 0  -2.70836482052258 0.3717785376349917 0  -2.776753453940975 0.1914525314295042 0  0.4588466633941945 0.2704149791022056 0  -4.424312812173863 0.2760319703992994 0  -3.803977598762586 -0.6841584599595646 0  -0.1330968762779425 -0.6798763971615133 0  2.451109587541276 3.169800318630399e-13 0  -3.563610936250569 0.5929994091167295 0  4.204753319582647 0.2820669554523581 0  -0.4390897559348154 0.6178095532273566 0  -3.041446812595122 1.175550440315544 0  -0.9622132806516797 1.132103015222783 0  1.069493318942931 -0.773608156980569 0  -4.924330687080279 -0.7127064269610045 0  -3.024693497948964 -1.195179289656404 0  -0.9648749555625579 -1.256854520022574 0  -3.443624282349383 -0.2044158249759613 0  -0.5611500783757608 -0.1747080110423833 0  1.60270880116926 0.7487034276124258 0  3.488352576142236 -0.8228939860777884 0  4.816375011670135 -0.8163750116689444 0  3.243628045085357 0.8578172796997985 0  -4.228632884234073 1.228069101636678 0  -2.365220384435482 -1.356128547810356 0  -1.637465979486354 1.3571687267915 0  -1.642380978561139 -1.359365080147485 0  -2.362988915989869 1.356737096243695 0  -5.134120367293631 0.8356299802910161 0  2.077496878467794 -0.9514080034522553 0  4.960859291178299 0.9608592911785537 0  0.3293120056474302 1.148965409695154 0  -5.157560560414062 0.09447106214747865 0  -3.14779387667392 -0.6330563038825547 0  -3.148134455585257 0.4354299640428653 0  -0.8464439673630421 0.4159277415926296 0  -0.9918125625721008 -0.7191748422889824 0  -4.355349213295776 -1.234510499778242 0  1.582074659164868 -0.06850205959954866 0  2.400584045214166 1.204278622181321 0  5.102831660739063 0.03453404176596848 0  4.083259768981113 1.154272958349666 0  -3.992394834362243 -0.1621022234411988 0  0.4290302718942113 -1.225465289645401 0  -3.681487986394671 -1.310544246656267 0  -3.640289698916164 1.187023654838123 0  0.468851680921228 -0.447055967952278 0  3.315209904217932 0.05667935655546536 0  -2.541160649745046 -1.046980928586996 0  -1.45196684542695 1.044189935346116 0  -2.000844595891861 -1.207983108473125 0  -1.453092202970521 -1.061139264918894 0  -2.000050543938391 1.207806685704176 0  -2.548033154566413 1.04418993534851 0  4.13054585796652 -1.232871249381608 0  -0.3301617095463629 1.221692405319566 0  -0.2880491989587189 -1.359626628407983 0  -0.0758941643813178 0.132275811829787 0  2.826389221580753 -1.233168480096227 0  -2.922070412327736 0.7575752117792038 0  1.003070890178416 1.271347915034201 0  -5.319521816151902 -1.310543894393663 0  -1.070407062963812 0.7877698545098388 0  -4.562499863038985 -0.2302396981426722 0  -3.164226661545047 0.07179577787350272 0  -0.9091377812900333 0.132454654016971 0  4.116029045943655 -0.4851826871817362 0  5.316659189209927 -1.316659189208741 0  -0.9498828454673396 -0.4149758979014553 0  -4.037769805263969 0.6896174350675625 0  1.431664772855882 -1.327784137638992 0  -3.646693623568034 0.1600006358878044 0  -2.878371345483476 -0.7910345833001061 0  1.062603041385242 0.2894765870627741 0  -0.547955103783681 0.1635272504420374 0  -4.804809838419659 1.41016301576038 0  -3.042895319571192 -0.3694931303482478 0  -4.59252578392403 0.792267765362792 0  2.823271260730033 -0.5472430318427347 0  -4.28575390662405 -0.7521491832384866 0  -0.5524005545121191 -0.9037367558558163 0  1.815219025072439 1.388812135783969 0  -1.288398729718543 -0.8178399475601057 0  -5.424388493366639 1.35375165044146 0  -2.256991952837567 -1.049538527273222 0  -1.739586738723494 -1.052327527873255 0  -1.738827359988536 1.050180627239116 0  -2.257795730428802 1.049701225145305 0  -0.62222340523776 -0.5483611729237363 0  2.065188519029698 0.5424877383589943 0  0.1055865106318892 0.7347782870471022 0  1.013082573993895 -0.2061877611231605 0  -5.428323520618333 -0.4386412085227075 0  5.374041502384443 -0.5304401760993408 0  3.435185060219232 -1.377658617395091 0  -3.302377238490527 0.8841390072780534 0  -0.9902123298072768 -0.124175295282554 0  0.7186958547669859 0.8724503317343631 0  2.941237214953417 1.390391532351976 0  4.708037787864423 -1.340276032051348 0  5.395029680982659 1.395029680983341 0  3.591022587550188 1.348260650408605 0  2.759385971589342 0.4857447325740718 0  -0.6832705231418494 0.8879387563573758 0  5.437781298507145 0.5981501503262471 0  -2.698603003287285 1.617130043745112 0  -3.463358189947519 -1.013588318179017 0  1.710866040171871 -0.6978716337870808 0  3.642182982762737 0.4555704362064124 0  -2.699802128031161 -1.618310703146212 0  -1.3020054856637 1.619819977935582 0  -2.000000000004996 -1.566396763829867 0  -1.999999999994794 1.566396763830688 0  -1.247812462071684 -1.595232739507426 0  4.59429106759859 1.420052135572917 0  0.9448382581152466 -1.440259145469251 0  -0.116376100998861 -0.2606209011258676 0  -4.774521510507792 0.4245390872783272 0  -2.983910172370106 -0.1208000607277856 0  -3.353983741142061 1.576062863985777 0  -5.473352579109997 0.4917619255280954 0  -4.828650470275986 -1.493148538517745 0  4.639973657165532 -0.2833178611094909 0  -2.660279445404468 0.7699932347178977 0  -1.335045190775955 0.7744876666923373 0  -3.395669172689978 0.2584951122361346 0  2.279110606119369 -1.465899541383697 0  4.734317729212562 0.4520963557364723 0  -0.6334913028224612 1.584213953723378 0  2.121854101359879 -0.4289611127787379 0  -3.474459720833238 -0.4977581316675216 0  -1.066539898844178 0.3411379476537602 0  -3.361849707555382 -1.611428512420182 0  -4.099039818938317 0.3306400369415774 0  -2.935324777364672 0.354721898811665 0  -3.973578595052027 1.482940358734671 0  3.784450148635689 -0.0702780807301525 0  -1.191348122671212 -0.5614501189722798 0  -2.838672605956353 -0.5493179047027598 0  -1.184983441257359 0.5617520886612424 0  -2.811184099847449 0.5574240755049175 0  0.2702752249355158 -0.8003643570420809 0  -0.6945947797857237 -1.593893965175195 0  0.001175881878679056 1.504521009023778 0  0.6072931735145096 1.501814722697789 0  -3.991896293645949 -1.047264188412552 0  -3.734097395159253 -0.3261671578666079 0  -5.539652387691843 -0.8857154182585802 0  -4.395061924111849 1.563293728588296 0  0.2258327611651416 -0.08745142624872881 0  -3.774816634825771 0.8676973328379478 0  2.208484493569073 1.6256686312487 0  0.1309939514660535 -1.566169703482512 0  -5.551414360955331 0.9459842275970113 0  -4.04734138658365 -1.51163984963472 0  -4.947145019546805 -0.3299925153029702 0  4.320410447198621 0.6970857582435144 0  -4.707557346727139 -1.000565649857444 0  1.353711468973986 1.582551234446199 0  1.674156483558973 0.3266252271732694 0  -4.039105552973997 -0.4537604746027087 0  0.01051727619263377 -1.088858357362194 0  -0.2234942609176301 0.8619127912343982 0  -2.95903482691863 0.1219373374385197 0  -4.682467695920681 0.0804575682243254 0  5.535750224195656 -0.1525732643419722 0  -4.290083947414376 -0.0005258314026840717 0  1.136102562417988 0.7655312464039168 0  -2.816589394567214 0.9927597419785312 0  -2.645374456162409 -0.7645902451387543 0  4.18414576655837 1.624276131878667 0  0.7127337088822223 -0.9006358935856398 0  1.972418102153911 0.9727040774616764 0  -2.42199174813501 0.8591219219254587 0  -2.418604734200992 -0.8552987735117754 0  -5.573597213364169 -0.03612430678117123 0  2.024792870869397 0.05574071630590883 0  -1.578875191508968 0.861424470724936 0  -1.54706008231699 -0.8630049102346303 0  3.848662181064435 -1.569601980075533 0  -2.000000000003871 -0.9746445732264465 0  -1.99999999
[...]
<PointData  Vectors="f_22"> 
<DataArray  type="Float64"  Name="f_22"  NumberOfComponents="3" format="ascii">0.0000000000000000e+00 0.0000000000000000e+00 0.0000000000000000e+00  0.0000000000000000e+00 0.0000000000000000e+00 0.0000000000000000e+00  0.0000000000000000e+00 0.0000000000000000e+00 0.0000000000000000e+00  0.0000000000000000e+00 0.0000000000000000e+00 0.0000000000000000e+00  9.9999995740071967e-01 0.0000000000000000e+00 0.0000000000000000e+00  9.9999995740071967e-01 0.0000000000000000e+00 0.0000000000000000e+00  0.0000000000000000e+00 0.0000000000000000e+00 0.0000000000000000e+00  0.0000000000000000e+00 0.0000000000000000e+00 0.0000000000000000e+00  0.0000000000000000e+00 0.0000000000000000e+00 0.0000000000000000e+00  0.0000000000000000e+00 0.0000000000000000e+00 0.0000000000000000e+00  0.0000000000000000e+00 0.0000000000000000e+00 0.0000000000000000e+00  0.0000000000000000e+00 0.0000000000000000e+00 0.0000000000000000e+00  0.0000000000000000e+00 0.0000000000000000e+00 0.0000000000000000e+00  0.0000000000000000e+00 0.0000000000000000e+00 0.0000000000000000e+00  0.0000000000000000e+00 0.0000000000000000e+00 0.0000000000000000e+00  0.0000000000000000e+00 0.0000000000000000e+00 0.0000000000000000e+00  0.0000000000000000e+00 0.0000000000000000e+00 0.0000000000000000e+00  0.0000000000000000e+00 0.0000000000000000e+00 0.0000000000000000e+00  0.0000000000000000e+00 0.0000000000000000e+00 0.0000000000000000e+00  0.0000000000000000e+00 0.0000000000000000e+00 0.0000000000000000e+00  0.0000000000000000e+00 0.0000000000000000e+00 0.0000000000000000e+00  0.0000000000000000e+00 0.0000000000000000e+00 0.0000000000000000e+00  0.0000000000000000e+00 0.0000000000000000e+00 0.0000000000000000e+00  0.0000000000000000e+00 0.0000000000000000e+00 0.0000000000000000e+00  0.0000000000000000e+00 0.0000000000000000e+00 0.0000000000000000e+00  0.0000000000000000e+00 0.0000000000000000e+00 0.0000000000000000e+00  0.0000000000000000e+00 0.0000000000000000e+00 0.0000000000000000e+00  0.0000000000000000e+00 0.0000000000000000e+00 0.0000000000000000e+00  0.0000000000000000e+00 0.0000000000000000e+00 0.0000000000000000e+00  3.4585809493929365e-01 -2.7134294983054776e-04 0.0000000000000000e+00  6.0229768095074654e-01 -5.0351085908597324e-04 0.0000000000000000e+00  7.5327543345917924e-01 -4.6117833179734282e-04 0.0000000000000000e+00  8.0356759779292308e-01 -2.2749029304387129e-05 0.0000000000000000e+00  7.5322383968851248e-01 4.1612648199172898e-04 0.0000000000000000e+00  6.0231518741824508e-01 5.0577921551642115e-04 0.0000000000000000e+00  3.4598395036900637e-01 2.3678931576908932e-04 0.0000000000000000e+00  0.0000000000000000e+00 0.0000000000000000e+00 0.0000000000000000e+00  0.0000000000000000e+00 0.0000000000000000e+00 0.0000000000000000e+00  0.0000000000000000e+00 0.0000000000000000e+00 0.0000000000000000e+00  0.0000000000000000e+00 0.0000000000000000e+00 0.0000000000000000e+00  0.0000000000000000e+00 0.0000000000000000e+00 0.0000000000000000e+00  0.0000000000000000e+00 0.0000000000000000e+00 0.0000000000000000e+00  0.0000000000000000e+00 0.0000000000000000e+00 0.0000000000000000e+00  0.0000000000000000e+00 0.0000000000000000e+00 0.0000000000000000e+00  0.0000000000000000e+00 0.0000000000000000e+00 0.0000000000000000e+00  0.0000000000000000e+00 0.0000000000000000e+00 0.0000000000000000e+00  0.0000000000000000e+00 0.0000000000000000e+00 0.0000000000000000e+00  0.0000000000000000e+00 0.0000000000000000e+00 0.0000000000000000e+00  0.0000000000000000e+00 0.0000000000000000e+00 0.0000000000000000e+00  0.0000000000000000e+00 0.0000000000000000e+00 0.0000000000000000e+00  0.0000000000000000e+00 0.0000000000000000e+00 0.0000000000000000e+00  0.0000000000000000e+00 0.0000000000000000e+00 0.0000000000000000e+00  0.0000000000000000e+00 0.0000000000000000e+00 0.0000000000000000e+00  0.0000000000000000e+00 0.0000000000000000e+00 0.0000000000000000e+00  0.0000000000000000e+00 0.0000000000000000e+00 0.0000000000000000e+00  0.0000000000000000e+00 0.0000000000000000e+00 0.0000000000000000e+00  0.0000000000000000e+00 0.0000000000000000e+00 0.0000000000000000e+00  0.0000000000000000e+00 0.0000000000000000e+00 0.0000000000000000e+00  0.0000000000000000e+00 0.0000000000000000e+00 0.0000000000000000e+00  3.4467615633432486e-01 -5.6607328760567707e-04 0.0000000000000000e+00  6.0175871565384431e-01 -9.5170759436000835e-04 0.0000000000000000e+00  7.5392817523350741e-01 -7.6394235169652573e-04 0.0000000000000000e+00  8.0521481666290062e-01 -3.7729508090291429e-06 0.0000000000000000e+00  7.5460460738922097e-01 8.8755204768699357e-04 0.0000000000000000e+00  6.0208571788296406e-01 1.0174388722030095e-03 0.0000000000000000e+00  3.4469452087093411e-01 6.0847071868106307e-04 0.0000000000000000e+00  9.9999995740071967e-01 0.0000000000000000e+00 0.0000000000000000e+00  9.9999995740071967e-01 0.0000000000000000e+00 0.0000000000000000e+00  9.9999995740071967e-01 0.0000000000000000e+00 0.0000000000000000e+00  9.9999995740071967e-01 0.0000000000000000e+00 0.0000000000000000e+00  9.9999995740071967e-01 0.0000000000000000e+00 0.0000000000000000e+00  9.9999995740071967e-01 0.0000000000000000e+00 0.0000000000000000e+00  9.9999995740071967e-01 0.0000000000000000e+00 0.0000000000000000e+00  9.9999995740071967e-01 0.0000000000000000e+00 0.0000000000000000e+00  9.9999995740071967e-01 0.0000000000000000e+00 0.0000000000000000e+00  9.9999995740071967e-01 0.0000000000000000e+00 0.0000000000000000e+00  9.9999995740071967e-01 0.0000000000000000e+00 0.0000000000000000e+00  9.9999995740071967e-01 0.0000000000000000e+00 0.0000000000000000e+00  9.9999995740071967e-01 0.0000000000000000e+00 0.0000000000000000e+00  9.9999995740071967e-01 0.0000000000000000e+00 0.0000000000000000e+00  9.9999995740071967e-01 0.0000000000000000e+00 0.0000000000000000e+00  9.9999995740071967e-01 0.0000000000000000e+00 0.0000000000000000e+00  9.9999995740071967e-01 0.0000000000000000e+00 0.0000000000000000e+00  9.9999995740071967e-01 0.0000000000000000e+00 0.0000000000000000e+00  9.9999995740071967e-01 0.0000000000000000e+00 0.0000000000000000e+00  9.9999995740071967e-01 0.0000000000000000e+00 0.0000000000000000e+00  9.9999995740071967e-01 0.0000000000000000e+00 0.0000000000000000e+00  9.9999995740071967e-01 0.0000000000000000e+00 0.0000000000000000e+00  9.9999995740071967e-01 0.0000000000000000e+00 0.0000000000000000e+00  9.9999995740071967e-01 0.0000000000000000e+00 0.0000000000000000e+00  8.6754129585762152e-01 1.6363014328994445e-02 0.0000000000000000e+00  7.9847867170648656e-01 -5.3379757170253263e-03 0.0000000000000000e+00  7.1925280711339790e-01 3.1701965674948991e-02 0.0000000000000000e+00  7.6152061292983952e-01 -4.8400091388006335e-02 0.0000000000000000e+00  8.2168164857315129e-01 1.7168074645639298e-05 0.0000000000000000e+00  7.5555577166576904e-01 -4.6323512224216074e-02 0.0000000000000000e+00  7.9048418553516586e-01 9.9351805955038967e-04 0.0000000000000000e+00  8.1392992007160436e-01 5.2796479202716927e-02 0.0000000000000000e+00  4.5182531140126447e-01 -9.1315349901354093e-02 0.0000000000000000e+00  4.4342190840788775e-01 9.1009816595407578e-02 0.0000000000000000e+00  6.8666867093391082e-01 -2.4423173352798047e-02 0.0000000000000000e+00  7.0294232063771822e-01 4.2537585985364312e-03 0.0000000000000000e+00  4.3769518608298069e-01 9.0801911144879344e-02 0.0000000000000000e+00  3.3134732739659750e-01 -7.9429062631600711e-02 0.0000000000000000e+00  8.5772546698460783e-01 2.5067817967185477e-02 0.0000000000000000e+00  9.5523282582358338e-01 -1.3765988794402275e-02 0.0000000000000000e+00  6.9379794230630210e-01 1.5533673751468847e-02 0.0000000000000000e+00  6.6678328350037486e-01 -3.2239866894313595e-03 0.0000000000000000e+00  6.6943505935381920e-01 -1.1127470597860052e-03 0.0000000000000000e+00  6.5428978382882863e-01 3.9385820714765759e-03 0.0000000000000000e+00  4.8952128449827709e-01 -1.1871168136543580e-02 0.0000000000000000e+00  2.0407089707365825e-01 9.6368638526469777e-02 0.0000000000000000e+00  1.6140283215203741e-01 2.5519797897483931e-02 0.0000000000000000e+00  1.5930315238582640e-01 -2.4443008270823633e-02 0.0000000000000000e+00  2.0317224914820606e-01 -9.6189939284635942e-02 0.0000000000000000e+00  6.6317687163364336e-01 -2.9008300979914518e-03 0.0000000000000000e+00  6.1456890429766931e-01 -1.0084757973458359e-02 0.0000000000000000e+00  6.1740657717444059e-01 9.3825646741227853e-04 0.0000000000000000e+00  4.8665273180068103e-01 3.8861586210686132e-02 0.0000000000000000e+00  8.0542662913395002e-01 -3.7922561282996631e-04 0.0000000000000000e+00  7.5939686353662106e-01 9.9977554460150081e-02 0.0000000000000000e+00  8.4102461134799544e-01 -8.1488407591958523e-02 0.0000000000000000e+00  9.3858303584186864e-01 3.6641647390207581e-02 0.0000000000000000e+00  8.1167841228585447e-01 -7.7646532085778763e-02 0.0000000000000000e+00  4.8835844336026013e-01 9.4884800086280207e-03 0.0000000000000000e+00  8.3962472874689364e-01 -2.0669133146691480e-03 0.0000000000000000e+00  5.0035620223672783e-01 5.8979357506937268e-03 0.0000000000000000e+00  8.0446484785791983e-01 4.7035635833595213e-05 0.0000000000000000e+00  5.3293365424133066e-01 1.5287418053972176e-03 0.0000000000000000e+00  8.2254585971442562e-01 7.3360610413502926e-03 0.0000000000000000e+00  4.4515009586641408e-01 -3.2917071418818743e-02 0.0000000000000000e+00  4.2828894737921464e-01 2.6726964395645179e-02 0.0000000000000000e+00  4.9441777347152044e-01 -3.4061454808480614e-02 0.0000000000000000e+00  8.2358846222294835e-01 -2.5850469058826601e-02 0.0000000000000000e+00  8.1129720223930113e-01 4.4476367974669853e-04 0.0000000000000000e+00  4.5187823524327225e-01 1.6677734160950244e-01 0.0000000000000000e+00  5.0450822628581482e-01 8.6341371172447418e-02 0.0000000000000000e+00  2.6589447055898024e-01 5.0122234400626457e-02 0.0000000000000000e+00  4.8406383523535029e-01 -8.5109207535779691e-02 0.0000000000000000e+00  2.6601274812922632e-01 -4.9883757963355778e-02 0.0000000000000000e+00  4.5558623898190065e-01 -1.6683617467206530e-01 0.0000000000000000e+00  4.9448025870937695e-01 -1.2983218980729663e-03 0.0000000000000000e+00  4.0995371195794517e-01 5.8874604622752749e-02 0.0000000000000000e+00  3.1787560659514208e-01 -4.6875613442028140e-02 0.0000000000000000e+00  9.2238647651928352e-01 9.3332284205819866e-03 0.0000000000000000e+00  4.8903666622109809e-01 -3.9381492384492570e-03 0.0000000000000000e+00  6.9805153613137338e-01 -1.4724499296953095e-01 0.0000000000000000e+00  4.3994971035510250e-01 1.8748110571460880e-02 0.0000000000000000e+00  4.5429871632355961e-01 1.5096328132332170e-03 0.0000000000000000e+00  7.6800689540353928e-01 8.6420634084190609e-02 0.0000000000000000e+00  8.0151446738233878e-01 3.5345202751928266e-03 0.0000000000000000e+00  9.1560843712899220e-01 -1.4821929176464450e-02 0.0000000000000000e+00  9.8639438210469010e-01 8.4587386858084087e-03 0.0000000000000000e+00  7.5824319681702002e-01 -1.6266796247643702e-03 0.0000000000000000e+00  4.5237035692263233e-01 -4.8670158808787454e-04 0.0000000000000000e+00  9.5165073402584122e-01 -3.4196870609465586e-02 0.0000000000000000e+00  7.1428983508444632e-01 -2.0800338072639268e-02 0.0000000000000000e+00  4.2004896724502350e-01 -1.1273492894456418e-02 0.0000000000000000e+00  8.4367325557489381e-01 -1.3411719486803527e-02 0.0000000000000000e+00  6.7606800873704631e-01 1.5529610982291231e-01 0.0000000000000000e+00  8.3465260765010874e-01 1.2659707462914560e-02 0.0000000000000000e+00  9.5545223887160557e-01 1.2759872699933098e-02 0.0000000000000000e+00  3.9559446505471790e-01 -3.0794002636596826e-03 0.0000000000000000e+00  8.8043069258562612e-01 8.5641555883603906e-02 0.0000000000000000e+00  6.7823415272115029e-01 -7.8661962497711783e-03 0.0000000000000000e+00  7.4885688640003112e-01 -5.0448445101457656e-03 0.0000000000000000e+00  6.9252857008735413e-01 1.3794970650085737e-02 0.0000000000000000e+00  6.4184702240662261e-01 -7.4535155742666087e-02 0.0000000000000000e+00  3.9314092026206870e-01 6.9065324929558480e-03 0.0000000000000000e+00  7.6812789472756948e-01 -8.7069262553681692e-02 0.0000000000000000e+00  4.3053192107549421e-01 -1.1662678513620474e-03 0.0000000000000000e+00  4.2221059053355642e-01 1.2594676004631677e-01 0.0000000000000000e+00  4.6834352405672131e-01 -3.7101928868181679e-02 0.0000000000000000e+00  4.7139212595105934e-01 3.7519193016055635e-02 0.0000000000000000e+00  4.2195076924956404e-01 -1.2616255572905166e-01 0.0000000000000000e+00  8.6401286141809985e-01 -5.1199534240024297e-02 0.0000000000000000e+00  7.5546079427247625e-01 9.2895194093851503e-03 0.0000000000000000e+00  7.2232463137102221e-01 4.4966759988221354e-02 0.0000000000000000e+00  8.4949363905128572e-01 -9.6017185068507996e-03 0.0000000000000000e+00  7.6675194091440813e-01 1.2117463361603516e-03 0.0000000000000000e+00  7.4728408156550363e-01 -6.4755014658514831e-04 0.0000000000000000e+00  4.1468407088330622e-01 -1.7243694246922210e-03 0.0000000000000000e+00  6.3700292411536874e-01 -7.7970801032332573e-02 0.0000000000000000e+00  9.9181954432925856e-01 -6.4448421369441939e-03 0.0000000000000000e+00  6.4330404710139089e-01 3.2487689285627792e-02 0.0000000000000000e+00  4.0437927904711524e-01 2.5372702295893782e-03 0.0000000000000000e+00  4.3912857454518073e-01 -6.3460984208849470e-04 0.0000000000000000e+00  4.0883295532190173e-01 4.1809829032287131e-04 0.0000000000000000e+00  4.3150710932816994e-01 1.5962622377979148e-03 0.0000000000000000e+00  7.6346219988522035e-01 5.0298420569888612e-03 0.0000000000000000e+00  6.5834242713650404e-01 8.0646018829924629e-02 0.0000000000000000e+00  7.3176871040443614e-01 6.4070131298651358e-04 0.0000000000000000e+00  1.3579160356971007e-01 -4.1056408399195388e-02 0.0000000000000000e+00  5.7671782868627708e-01 5.5647525195265765e-02 0.0000000000000000e+00  7.1144386572530482e-01 -1.3998802681946837e-02 0.0000000000000000e+00  7.6539459287309042e-01 2.3073349070172307e-03 0.0000000000000000e+00  1.3545043633575471e-01 4.0779307773399734e-02 0.0000000000000000e+00  3.7344874307053494e-02 2.6690021183537124e-02 0.0000000000000000e+00  3.7634241266108648e-02 2.7586260687758359e-02 0.0000000000000000e+00  3.7605105483016418e-02 -2.7551208592384104e-02 0.0000000000000000e+00  5.6277671532083996e-02 -3.1126817928113854e-02 0.0000000000000000e+00  3.9307804144412284e-01 5.5667428827439909e-04 0.0000000000000000e+00  3.4111334171499980e-01 -1.3600653010010738e-02 0.0000000000000000e+00  9.0720521832830170e-01 -1.8715002306782420e-02 0.0000000000000000e+00  7.7189041329434838e-01 -4.0520281023405458e-03 0.0000000000000000e+00  9.5225185022066428e-01 3.1206488817558761e-02 0.0000000000000000e+00  2.4706891872795131e-01 -2.1877729956065916e-02 0.0000000000000000e+00  7.5622063615744839e-01 -1.1119776439711016e-03 0.0000000000000000e+00  3.4672988754018230e-01 2.3544776792568389e-03 0.0000000000000000e+00  7.8920664806562923e-01 -7.0676946308269209e-04 0.0000000000000000e+00  6.9403366504696362e-01 -1.7863416106219399e-01 0.0000000000000000e+00  8.2006132773836982e-01 7.6736866257988423e-02 0.0000000000000000e+00  8.5459959043847600e-01 -3.3885779004768760e-02 0.0000000000000000e+00  3.5486865552003566e-01 -3.6083772301092562e-03 0.0000000000000000e+00  7.6355873819208386e-01 9.5553883722669544e-04 0.0000000000000000e+00  1.4184890429831803e-01 3.2203562878192100e-02 0.0000000000000000e+00  7.8174616514513517e-01 -7.6364911522611599e-03 0.0000000000000000e+00  7.9012680770820798e-01 4.9394252380741042e-02 0.0000000000000000e+00  9.8032001419668391e-01 1.9956136175514529e-02 0.0000000000000000e+00  2.2586613721792348e-01 1.8599607789210184e-02 0.0000000000000000e+00  7.9838000837715395e-01 -1.1393070730814536e-02 0.0000000000000000e+00  9.0793613784773342e-01 -9.1409073578296821e-02 0.0000000000000000e+00  3.3815920611483630e-01 -1.1119422781475151e-02 0.0000000000000000e+00  8.0794851709648485e-01 -3.7303913921770597e-04 0.0000000000000000e+00  9.4018233961832576e-01 -4.2966037755960536e-02 0.0000000000000000e+00  8.3318615737210378e-01 1.4047470603277443e-01 0.0000000000000000e+00  9.3885150047487920e-01 4.3828567366249099e-02 0.0000000000000000e+00  8.3414462299762615e-01 -1.4434844932180457e-01 0.0000000000000000e+00  6.8378659901628924e-01 -4.2879326107224336e-02 0.0000000000000000e+00  1.2812333268186857e-01 -3.2607607746885599e-02 0.0000000000000000e+00  2.5064313047860853e-01 2.6810705810515451e-02 0.0000000000000000e+00  2.8995192708662798e-01 1.5858243542593985e-02 0.0000000000000000e+00  5.7436013447051348e-01 2.1541194000430450e-02 0.0000000000000000e+00  8.1480288119047595e-01 2.2296946665114472e-02 0.0000000000000000e+00  6.4585861387740728e-01 1.4382873313327305e-03 0.0000000000000000e+00  2.9732374855348670e-01 -3.9380764014615051e-03 0.0000000000000000e+00  9.0540304264148552e-01 -5.7237069784778546e-03 0.0000000000000000e+00  6.5035272081727491e-01 -3.4460781707684157e-02 0.0000000000000000e+00  2.5330581561295890e-01 2.1682220868547912e-03 0.0000000000000000e+00  2.2395151507994676e-01 -1.9534791941947738e-02 0.0000000000000000e+00  6.2307080691595740e-01 -1.3717836195440666e-03 0.0000000000000000e+00  3.2252013983605693e-01 9.0296815300525222e-03 0.0000000000000000e+00  7.8591010617329149e-01 2.3684685704158152e-03 0.0000000000000000e+00  7.0630334583059573e-01 1.6342090569761334e-03 0.0000000000000000e+00  6.0044710766232512e-01 6.3068765388405263e-03 0.0000000000000000e+00  2.6744364197098214e-01 5.6861278671737504e-03 0.0000000000000000e+00  8.0929097332773858e-01 8.7230823542665918e-03 0.0000000000000000e+00  7.7757231663202020e-01 1.6558014153200219e-02 0.0000000000000000e+00  5.1438035166321017e-01 -5.0856906026687604e-02 0.0000000000000000e+00  6.6028381094026334e-01 5.9426214956975136e-02 0.0000000000000000e+00  9.5887499747472094e-01 -3.1958224288075480e-02 0.0000000000000000e+00  8.0973943075613730e-01 -8.5857953307286064e-04 0.0000000000000000e+00  7.9931882941127053e-01 -2.2124627368608766e-04 0.0000000000000000e+00  8.1855757595687995e-01 3.0042823759217436e-05 0.0000000000000000e+00  6.8950769359608777e-01 2.3151490163579022e-02 0.0000000000000000e+00  5.3598010591713974e-01 -1.4961481354998299e-01 0.0000000000000000e+00  7.0022148584576238e-01 1.7726105931437192e-01 0.0000000000000000e+00  2.6367919587447430e-01 4.3868827510658396e-04 0.0000000000000000e+00  6.2949142121911239e-01 -3.2749574773832231e-02 0.0000000000000000e+00  6.0490238458478640e-01 1.0854286276375224e-02 0.0000000000000000e+00  6.3664177714258152e-01 -1.5410552955972781e-01 0.0000000000000000e+00  6.4267609394439951e-01 1.5169563565841918e-01 0.0000000000000000e+00  8.0533452890564183e-01 5.9880555144142003e-05 0.0000000000000000e+00  8.2869981437691265e-01 1.2046910247642420e-03 0.0000000000000000e+00  7.5950132567099349e-01 6.6029719285299757e-02 0.0000000000000000e+00  7.5188187184689059e-01 -7.0728490267724750e-02 0.0000000000000000e+00  2.9894524174663550e-01 -6.4459545645479462e-04 0.0000000000000000e+00  5.5600054558955847e-01 3.0947667122172381e-02 0.0000000000000000e+00  5.5598808371821773e-01 -3.0975717518701918e-02 0.0000000000000000e+00  3.3831666269879324e-01 -1.0698545187757912e-01 0.0000000000000000e+00  6.2485000140056413e-01 2.7124079859303825e-03 0.0000000000000000e+00  5.6666072710208026e-01 9.9857208999070635e-02 0.0000000000000000e+00  8.7995196233374806e-01 -2.2029432117232919e-03 0.0000000000000000e+00  6.0742424023919828e-01 5.8469236843362285e-04 0.0000000000000000e+00  6.2884881645904533e-01 -6.1533154193956592e-04 0.0000000000000000e+00  6.0686090548293348e-01 5.2648191672237275e-03 0.0000000000000000e+00  2.7149894960943399e-01 7.3538162023022852e-02 0.0000000000000000e+00  5.3562127495093559e-01 -9.9337576661637894e-02 0.0000000000000000e+00  6.5109635039766400e-01 -7.1610787881827452e-03 0.0000000000000000e+00  6.5926424401309569e-01 -1.5578626229498635e-03 0.0000000000000000e+00  2.6469537835728840e-01 -3.0356055072848509e-04 0.0000000000000000e+00  2.5763663699390882e-01 -3.5482272253461061e-03 0.0000000000000000e+00  8.3109415777451945e-01 -3.1618634710390454e-02 0.