<?xml version="1.0"?>
<VTKFile type="UnstructuredGrid"  version="0.1"  >
<UnstructuredGrid>
<Piece  NumberOfPoints="622" NumberOfCells="1116">
<Points>
<DataArray  type="Float64"  NumberOfComponents="3"  format="ascii">-6 -2 0  -6 2 0  6 2 0  6 -2 0  -2.8 0 0  -1.2 0 0  -5.500000000001853 -2 0  -5.000000000003705 -2 0  -4.500000000005556 -2 0  -4.000000000007409 -2 0  -3.50000000000926 -2 0  -3.000000000011112 -2 0  -2.500000000012963 -2 0  -2.000000000014814 -2 0  -1.500000000016665 -2 0  -1.000000000018516 -2 0  -0.5000000000203677 -2 0  -2.204547655537681e-11 -2 0  0.4999999999796305 -2 0  0.9999999999814779 -2 0  1.499999999983327 -2 0  1.999999999985175 -2 0  2.499999999987029 -2 0  2.999999999988882 -2 0  3.499999999990735 -2 0  3.999999999992589 -2 0  4.49999999999444 -2 0  4.999999999996293 -2 0  5.499999999998147 -2 0  6 -1.500000000001387 0  6 -1.000000000002774 0  6 -0.5000000000041616 0  6 -5.505595979116151e-12 0  6 0.4999999999958384 0  6 0.9999999999972258 0  6 1.499999999998613 0  5.500000000001853 2 0  5.000000000003705 2 0  4.500000000005556 2 0  4.000000000007409 2 0  3.50000000000926 2 0  3.000000000011112 2 0  2.500000000012963 2 0  2.000000000014814 2 0  1.500000000016665 2 0  1.000000000018516 2 0  0.5000000000203677 2 0  2.204547655537681e-11 2 0  -0.4999999999796305 2 0  -0.9999999999814779 2 0  -1.499999999983327 2 0  -1.999999999985175 2 0  -2.499999999987029 2 0  -2.999999999988882 2 0  -3.499999999990735 2 0  -3.999999999992589 2 0  -4.49999999999444 2 0  -4.999999999996293 2 0  -5.499999999998147 2 0  -6 1.500000000001387 0  -6 1.000000000002774 0  -6 0.5000000000041616 0  -6 5.505595979116151e-12 0  -6 -0.4999999999958384 0  -6 -0.9999999999972258 0  -6 -1.499999999998613 0  -2.796147781337886 -0.07841371226233997 0  -2.784628224322852 -0.1560722576115546 0  -2.765552268586196 -0.2322277418021561 0  -2.739103626009626 -0.30614674589063 0  -2.705537011479457 -0.3771173894593519 0  -2.665175689843037 -0.4444561864141836 0  -2.618408362691456 -0.5075146273293722 0  -2.565685424950688 -0.5656854249477874 0  -2.507514627332613 -0.6184083626887972 0  -2.444456186417533 -0.6651756898407991 0  -2.377117389462776 -0.7055370114776264 0  -2.306146745894456 -0.7391036260080417 0  -2.232227741806235 -0.7655522685849585 0  -2.15607225761588 -0.784628224321992 0  -2.078413712266957 -0.7961477813374315 0  -2.000000000003407 -0.7999999999999998 0  -1.921586287739523 -0.7961477813380696 0  -1.843927742389945 -0.7846282243231506 0  -1.767772258198879 -0.7655522685865098 0  -1.693853254109962 -0.7391036260098718 0  -1.622882610540873 -0.7055370114795768 0  -1.555543813585629 -0.6651756898429115 0  -1.49248537267008 -0.6184083626910072 0  -1.434314575051535 -0.5656854249500112 0  -1.381591637310384 -0.5075146273316149 0  -1.334824310158267 -0.4444561864161359 0  -1.294462988521423 -0.3771173894609975 0  -1.260896373990956 -0.3061467458920351 0  -1.234447731414138 -0.2322277418032578 0  -1.215371775677287 -0.156072257612254 0  -1.203852218662147 -0.07841371226267954 0  -1.203852218662115 0.07841371226235888 0  -1.215371775677132 0.156072257611478 0  -1.234447731413795 0.232227741802127 0  -1.260896373990353 0.3061467458905811 0  -1.294462988520456 0.3771173894591898 0  -1.334824310156812 0.444456186413959 0  -1.381591637308413 0.5075146273292139 0  -1.434314575049147 0.5656854249476236 0  -1.492485372667197 0.6184083626886415 0  -1.555543813582104 0.6651756898405565 0  -1.62288261053673 0.7055370114773629 0  -1.693853254105125 0.7391036260078683 0  -1.767772258193396 0.7655522685848468 0  -1.84392774238373 0.7846282243219146 0  -1.921586287732977 0.7961477813374253 0  -1.999999999996558 0.8 0  -2.078413712260516 0.7961477813380661 0  -2.156072257610207 0.7846282243231205 0  -2.232227741801178 0.7655522685864928 0  -2.306146745890059 0.7391036260098632 0  -2.377117389459098 0.7055370114795929 0  -2.444456186414405 0.6651756898428894 0  -2.50751462732998 0.6184083626909587 0  -2.565685424948549 0.5656854249499272 0  -2.61840836268981 0.5075146273313792 0  -2.665175689841831 0.4444561864159886 0  -2.705537011478692 0.3771173894607835 0  -2.739103626009108 0.3061467458918818 0  -2.76555226858589 0.2322277418031643 0  -2.784628224322724 0.1560722576122001 0  -2.796147781337853 0.07841371226267957 0  0.6720367661319522 0.1312687487860887 0  -4.389489086394485 0.3544472233398538 0  -3.816221554046232 -0.6097988664512611 0  -3.552726516474419 0.9342959806851625 0  -0.2536610443052337 0.8162373554653355 0  -0.1843238977799138 -0.6649951410982842 0  -3.613359951620445 0.1086570650978273 0  -3.146954163409593 -1.074378179335012 0  -0.4255266515582625 0.07734891565364931 0  -0.9413731612925856 1.168014724254929 0  -2.947764053183577 1.200029094390044 0  -0.8319852757411681 -1.058626838707328 0  2.675418990747819 -1.137325591670363e-12 0  -2.602010642259726 -1.287560129290477 0  -2.334401622060699 1.335006108940604 0  -1.524718496628401 1.32890816230333 0  -1.369813829148039 -1.26145150481762 0  -3.294065651892671 -0.4630240940010318 0  -2.072749204569071 -1.388981302138359 0  -0.7546165313921411 0.5601792161340381 0  -3.224879719581335 0.4382689715877901 0  -0.7073137361349826 -0.4625305410752652 0  4.326242945813966 0.3262429458150917 0  -3.187880061217201 0.07437712177460168 0  -2.94792024259867 0.7030255657465158 0  -2.678809277907896 0.9152683582887104 0  -4.911626141576894 -0.5700186648601188 0  -2.980647654587299 -0.5685006168686053 0  -2.769438919323564 -0.8202775213660614 0  -1.936950121013948 1.220669938589229 0  -0.8971643766260747 0.2762459428874499 0  -0.8760878018253068 -0.06836412137772707 0  -1.086827485441145 0.6772548942594016 0  -1.31355927028917 0.8808768148414213 0  -1.034266382739347 -0.5912381576649568 0  -1.241594139118264 -0.836771920085274 0  1.667161185638911 -0.6367996576268693 0  1.778189842800902 0.7191719841256095 0  -3.065106827511819 -0.266795371500425 0  3.714311277362231 -0.7275465302492842 0  -1.728329421201519 -1.09954751473283 0  4.870629493137888 -0.7325040699186681 0  -3.024707894719303 0.2567561910603656 0  -4.375540207252226 1.228935704312058 0  -2.272077148001781 -1.086192861256262 0  3.351408248797803 0.9175227128129597 0  -5.141847419540732 0.8091901960109126 0  0.5769368286199241 1.111816231125821 0  0.7411482978492124 -1.079569101289617 0  -1.074013749991219 0.430231207546053 0  -1.04664573441257 -0.3358382377487088 0  -2.439195336951085 0.9224778883059374 0  -2.902607676587358 0.4360473765597399 0  -1.629450174302152 1.035617385691805 0  -2.146859933125513 1.032375363966426 0  2.587625196444542 -0.9999926061845814 0  -2.529286802957126 -0.8830616815739111 0  -1.493798157676768 -0.8794705728517196 0  -1.932158132383022 -1.026681566564148 0  -4.09956359341904 -0.1372485582942864 0  5.055802064425553 1.050933510837308 0  -4.413659685984891 -1.207626391697488 0  -4.961411026474009 0.1201902955685026 0  -3.771151641156835 -1.303594976371997 0  -3.001321503506133 -0.04919177107285733 0  -3.881733605683001 0.5124517634812003 0  -0.1971627317996802 -1.336445372382849 0  -2.742825060181767 0.6732573903735507 0  2.520439429199979 1.129372838786189 0  -1.026326428668429 0.1384273198437734 0  -2.779290004861729 -0.5844691722665721 0  -2.895095740820851 -0.4261289730972082 0  -1.275682076193407 0.6630703172777138 0  0.1045291701958869 0.3433373435296472 0  5.175560481258801 0.0608563229178163 0  -1.211574424201636 -0.5847362589868093 0  -1.85847006217035 1.007917631940711 0  4.152535916385823 1.131901130662082 0  -1.04878257200685 -0.1253529988863012 0  1.432836501626023 0.05634449574318775 0  3.560672936003603 0.01188897172456759 0  -3.351823698389408 -0.1821329582635926 0  -5.145153363200735 -1.259166339382508 0  0.03473693330309885 -0.1724947236036572 0  -4.377830921337186 -0.6172564090242229 0  -0.3943750728122595 1.410897156959435 0  -1.661073679471639 -0.9342065000197183 0  -1.49086536677686 0.8331714487926741 0  -2.584486130952032 0.7871482690034864 0  4.270535884593893 -1.259607924744415 0  -1.757417028085795 -1.505182186951191 0  -3.430586920998477 1.425579221231371 0  -2.917598827418652 -0.2298465409534677 0  -2.328978331116049 -0.9300959620317677 0  -2.148543000691344 -0.9751580214451921 0  1.002654111360038 -0.4521702885594788 0  -4.628651824080903 -0.1127998710567241 0  -2.948904386702482 0.1555943115410545 0  0.4165242577134774 -0.5629432649478633 0  -3.698137692471105 -0.3173027948676715 0  -3.491400684461791 -0.7926319721650269 0  -0.3844454817728994 0.4680628696134375 0  -3.207830713508533 0.9778749990559993 0  3.229909751065535 -1.326302454776001 0  5.330007715336748 -1.312905173261894 0  -2.649214054100534 -0.713314536278899 0  1.342022964818772 -1.328315248672686 0  -2.556460939068198 1.202372762828344 0  -0.3497819755044588 -0.3080427614060888 0  -4.928440909495523 1.387622767511967 0  1.309170811945155 1.337467055109531 0  -1.352031940181449 -0.7151198948590243 0  -0.6132855723904642 0.9519045895123004 0  4.266838388406324 -0.3707357390867402 0  -3.834389788310238 1.371594798941152 0  -1.187890214580146 0.4851427123079557 0  -1.109118888029193 0.3185947354467283 0  0.1837819401738013 1.234799661476361 0  1.108165254659559 0.6237223548284967 0  -0.5266600156584522 -0.8113991260886402 0  -4.643822083543982 0.7834094684931707 0  -1.146235204666366 -0.4027330721405781 0  2.049029845992713 -0.2664662499985428 0  2.002665761665898 -1.328912351029848 0  -1.678783505586872 0.8978832065736417 0  -2.049499525232052 0.9483890761590005 0  -2.229972236535132 0.9181006323151361 0  -3.033763529945482 -1.54240494280775 0  -3.562344364746847 0.5622550957224539 0  -5.524396842903405 -0.2709714867672603 0  -0.9710982764034376 -1.549038578476423 0  3.058819320130555 -0.5375106252795963 0  -4.170365230099585 0.7342553699229977 0  -1.045878746461381 -8.187420622554697e-05 0  -1.864822945411764 -0.9219031104673102 0  -0.6251005091687033 -0.2120650512195049 0  2.317562622406059 0.4886417799113238 0  -0.6674371191466613 0.1483993095055008 0  -2.705757882979874 1.609712312948224 0  
[...]
<PointData  Vectors="f_22"> 
<DataArray  type="Float64"  Name="f_22"  NumberOfComponents="3" format="ascii">0.0000000000000000e+00 0.0000000000000000e+00 0.0000000000000000e+00  0.0000000000000000e+00 0.0000000000000000e+00 0.0000000000000000e+00  0.0000000000000000e+00 0.0000000000000000e+00 0.0000000000000000e+00  0.0000000000000000e+00 0.0000000000000000e+00 0.0000000000000000e+00  9.9999997231745219e-01 0.0000000000000000e+00 0.0000000000000000e+00  9.9999997231745219e-01 0.0000000000000000e+00 0.0000000000000000e+00  0.0000000000000000e+00 0.0000000000000000e+00 0.0000000000000000e+00  0.0000000000000000e+00 0.0000000000000000e+00 0.0000000000000000e+00  0.0000000000000000e+00 0.0000000000000000e+00 0.0000000000000000e+00  0.0000000000000000e+00 0.0000000000000000e+00 0.0000000000000000e+00  0.0000000000000000e+00 0.0000000000000000e+00 0.0000000000000000e+00  0.0000000000000000e+00 0.0000000000000000e+00 0.0000000000000000e+00  0.0000000000000000e+00 0.0000000000000000e+00 0.0000000000000000e+00  0.0000000000000000e+00 0.0000000000000000e+00 0.0000000000000000e+00  0.0000000000000000e+00 0.0000000000000000e+00 0.0000000000000000e+00  0.0000000000000000e+00 0.0000000000000000e+00 0.0000000000000000e+00  0.0000000000000000e+00 0.0000000000000000e+00 0.0000000000000000e+00  0.0000000000000000e+00 0.0000000000000000e+00 0.0000000000000000e+00  0.0000000000000000e+00 0.0000000000000000e+00 0.0000000000000000e+00  0.0000000000000000e+00 0.0000000000000000e+00 0.0000000000000000e+00  0.0000000000000000e+00 0.0000000000000000e+00 0.0000000000000000e+00  0.0000000000000000e+00 0.0000000000000000e+00 0.0000000000000000e+00  0.0000000000000000e+00 0.0000000000000000e+00 0.0000000000000000e+00  0.0000000000000000e+00 0.0000000000000000e+00 0.0000000000000000e+00  0.0000000000000000e+00 0.0000000000000000e+00 0.0000000000000000e+00  0.0000000000000000e+00 0.0000000000000000e+00 0.0000000000000000e+00  0.0000000000000000e+00 0.0000000000000000e+00 0.0000000000000000e+00  0.0000000000000000e+00 0.0000000000000000e+00 0.0000000000000000e+00  0.0000000000000000e+00 0.0000000000000000e+00 0.0000000000000000e+00  3.7079255386837240e-01 2.4329295870232438e-04 0.0000000000000000e+00  4.2998180612016906e-01 1.4116766611103762e-04 0.0000000000000000e+00  4.3472039865295076e-01 -8.7056854956972000e-05 0.0000000000000000e+00  4.3504131383975081e-01 -2.1424140653424924e-06 0.0000000000000000e+00  4.3471585605444035e-01 9.1735783108363097e-05 0.0000000000000000e+00  4.3052007173074186e-01 3.3905069024726351e-04 0.0000000000000000e+00  3.7128297823552980e-01 -6.2959119310018556e-04 0.0000000000000000e+00  0.0000000000000000e+00 0.0000000000000000e+00 0.0000000000000000e+00  0.0000000000000000e+00 0.0000000000000000e+00 0.0000000000000000e+00  0.0000000000000000e+00 0.0000000000000000e+00 0.0000000000000000e+00  0.0000000000000000e+00 0.0000000000000000e+00 0.0000000000000000e+00  0.0000000000000000e+00 0.0000000000000000e+00 0.0000000000000000e+00  0.0000000000000000e+00 0.0000000000000000e+00 0.0000000000000000e+00  0.0000000000000000e+00 0.0000000000000000e+00 0.0000000000000000e+00  0.0000000000000000e+00 0.0000000000000000e+00 0.0000000000000000e+00  0.0000000000000000e+00 0.0000000000000000e+00 0.0000000000000000e+00  0.0000000000000000e+00 0.0000000000000000e+00 0.0000000000000000e+00  0.0000000000000000e+00 0.0000000000000000e+00 0.0000000000000000e+00  0.0000000000000000e+00 0.0000000000000000e+00 0.0000000000000000e+00  0.0000000000000000e+00 0.0000000000000000e+00 0.0000000000000000e+00  0.0000000000000000e+00 0.0000000000000000e+00 0.0000000000000000e+00  0.0000000000000000e+00 0.0000000000000000e+00 0.0000000000000000e+00  0.0000000000000000e+00 0.0000000000000000e+00 0.0000000000000000e+00  0.0000000000000000e+00 0.0000000000000000e+00 0.0000000000000000e+00  0.0000000000000000e+00 0.0000000000000000e+00 0.0000000000000000e+00  0.0000000000000000e+00 0.0000000000000000e+00 0.0000000000000000e+00  0.0000000000000000e+00 0.0000000000000000e+00 0.0000000000000000e+00  0.0000000000000000e+00 0.0000000000000000e+00 0.0000000000000000e+00  0.0000000000000000e+00 0.0000000000000000e+00 0.0000000000000000e+00  0.0000000000000000e+00 0.0000000000000000e+00 0.0000000000000000e+00  3.5870866811217095e-01 -1.6539761299198415e-03 0.0000000000000000e+00  4.2475874502184163e-01 1.5665982501575105e-04 0.0000000000000000e+00  4.4298092472977596e-01 -2.2636023130279191e-03 0.0000000000000000e+00  4.5426602346883982e-01 2.8978940455175115e-03 0.0000000000000000e+00  4.4605025644987611e-01 -8.9766318649561836e-04 0.0000000000000000e+00  4.2848592866982810e-01 -1.5267885983485776e-03 0.0000000000000000e+00  3.5815312344621986e-01 1.2471931480254707e-03 0.0000000000000000e+00  9.9999997231745219e-01 0.0000000000000000e+00 0.0000000000000000e+00  9.9999997231745219e-01 0.0000000000000000e+00 0.0000000000000000e+00  9.9999997231745219e-01 0.0000000000000000e+00 0.0000000000000000e+00  9.9999997231745219e-01 0.0000000000000000e+00 0.0000000000000000e+00  9.9999997231745219e-01 0.0000000000000000e+00 0.0000000000000000e+00  9.9999997231745219e-01 0.0000000000000000e+00 0.0000000000000000e+00  9.9999997231745219e-01 0.0000000000000000e+00 0.0000000000000000e+00  9.9999997231745219e-01 0.0000000000000000e+00 0.0000000000000000e+00  9.9999997231745219e-01 0.0000000000000000e+00 0.0000000000000000e+00  9.9999997231745219e-01 0.0000000000000000e+00 0.0000000000000000e+00  9.9999997231745219e-01 0.0000000000000000e+00 0.0000000000000000e+00  9.9999997231745219e-01 0.0000000000000000e+00 0.0000000000000000e+00  9.9999997231745219e-01 0.0000000000000000e+00 0.0000000000000000e+00  9.9999997231745219e-01 0.0000000000000000e+00 0.0000000000000000e+00  9.9999997231745219e-01 0.0000000000000000e+00 0.0000000000000000e+00  9.9999997231745219e-01 0.0000000000000000e+00 0.0000000000000000e+00  9.9999997231745219e-01 0.0000000000000000e+00 0.0000000000000000e+00  9.9999997231745219e-01 0.0000000000000000e+00 0.0000000000000000e+00  9.9999997231745219e-01 0.0000000000000000e+00 0.0000000000000000e+00  9.9999997231745219e-01 0.0000000000000000e+00 0.0000000000000000e+00  9.9999997231745219e-01 0.0000000000000000e+00 0.0000000000000000e+00  9.9999997231745219e-01 0.0000000000000000e+00 0.0000000000000000e+00  9.9999997231745219e-01 0.0000000000000000e+00 0.0000000000000000e+00  9.9999997231745219e-01 0.0000000000000000e+00 0.0000000000000000e+00  9.9999997231745219e-01 0.0000000000000000e+00 0.0000000000000000e+00  9.9999997231745219e-01 0.0000000000000000e+00 0.0000000000000000e+00  9.9999997231745219e-01 0.0000000000000000e+00 0.0000000000000000e+00  9.9999997231745219e-01 0.0000000000000000e+00 0.0000000000000000e+00  9.9999997231745219e-01 0.0000000000000000e+00 0.0000000000000000e+00  9.9999997231745219e-01 0.0000000000000000e+00 0.0000000000000000e+00  9.9999997231745219e-01 0.0000000000000000e+00 0.0000000000000000e+00  9.9999997231745219e-01 0.0000000000000000e+00 0.0000000000000000e+00  9.9999997231745219e-01 0.0000000000000000e+00 0.0000000000000000e+00  9.9999997231745219e-01 0.0000000000000000e+00 0.0000000000000000e+00  9.9999997231745219e-01 0.0000000000000000e+00 0.0000000000000000e+00  9.9999997231745219e-01 0.0000000000000000e+00 0.0000000000000000e+00  9.9999997231745219e-01 0.0000000000000000e+00 0.0000000000000000e+00  9.9999997231745219e-01 0.0000000000000000e+00 0.0000000000000000e+00  9.9999997231745219e-01 0.0000000000000000e+00 0.0000000000000000e+00  9.9999997231745219e-01 0.0000000000000000e+00 0.0000000000000000e+00  9.9999997231745219e-01 0.0000000000000000e+00 0.0000000000000000e+00  9.9999997231745219e-01 0.0000000000000000e+00 0.0000000000000000e+00  9.9999997231745219e-01 0.0000000000000000e+00 0.0000000000000000e+00  9.9999997231745219e-01 0.0000000000000000e+00 0.0000000000000000e+00  9.9999997231745219e-01 0.0000000000000000e+00 0.0000000000000000e+00  9.9999997231745219e-01 0.0000000000000000e+00 0.0000000000000000e+00  9.9999997231745219e-01 0.0000000000000000e+00 0.0000000000000000e+00  9.9999997231745219e-01 0.0000000000000000e+00 0.0000000000000000e+00  9.9999997231745219e-01 0.0000000000000000e+00 0.0000000000000000e+00  9.9999997231745219e-01 0.0000000000000000e+00 0.0000000000000000e+00  9.9999997231745219e-01 0.0000000000000000e+00 0.0000000000000000e+00  9.9999997231745219e-01 0.0000000000000000e+00 0.0000000000000000e+00  9.9999997231745219e-01 0.0000000000000000e+00 0.0000000000000000e+00  9.9999997231745219e-01 0.0000000000000000e+00 0.0000000000000000e+00  9.9999997231745219e-01 0.0000000000000000e+00 0.0000000000000000e+00  9.9999997231745219e-01 0.0000000000000000e+00 0.0000000000000000e+00  9.9999997231745219e-01 0.0000000000000000e+00 0.0000000000000000e+00  9.9999997231745219e-01 0.0000000000000000e+00 0.0000000000000000e+00  9.9999997231745219e-01 0.0000000000000000e+00 0.0000000000000000e+00  9.9999997231745219e-01 0.0000000000000000e+00 0.0000000000000000e+00  9.9999997231745219e-01 0.0000000000000000e+00 0.0000000000000000e+00  9.9999997231745219e-01 0.0000000000000000e+00 0.0000000000000000e+00  7.2707651967558362e-01 1.9494748564439352e-02 0.0000000000000000e+00  4.6292098435650569e-01 -1.2082610017463117e-02 0.0000000000000000e+00  4.6945826437022481e-01 5.5052610839809848e-02 0.0000000000000000e+00  4.2527844504407886e-01 -8.8002598357309392e-02 0.0000000000000000e+00  8.1786657649038608e-01 2.0004989436225593e-01 0.0000000000000000e+00  8.6504085678935405e-01 -1.7286781974950335e-01 0.0000000000000000e+00  5.3549410091870564e-01 -1.7302739068547453e-02 0.0000000000000000e+00  3.4682345910297135e-01 1.3414310129017690e-01 0.0000000000000000e+00  9.3997108485545622e-01 1.2396345389248347e-02 0.0000000000000000e+00  7.8852938243594503e-02 -8.3357275988401938e-02 0.0000000000000000e+00  2.6627848414711508e-01 -1.2665846344411652e-01 0.0000000000000000e+00  3.4697520287416755e-01 1.0609637601398689e-02 0.0000000000000000e+00  5.5108935019651040e-01 6.6819946812062832e-05 0.0000000000000000e+00  1.2832629872260165e-01 1.0161173913411163e-01 0.0000000000000000e+00  2.1902887187263461e-02 -1.0884536759893676e-01 0.0000000000000000e+00  -2.3376947748344046e-01 -2.2254880534257790e-01 0.0000000000000000e+00  -1.5121231434457036e-01 2.1492103283399544e-01 0.0000000000000000e+00  5.3818755685221087e-01 1.3145278216048750e-01 0.0000000000000000e+00  -8.9724367575723024e-02 1.3929677089299064e-01 0.0000000000000000e+00  1.0165642370303716e+00 4.8472409883443771e-02 0.0000000000000000e+00  5.5917000588308530e-01 -1.4494559142744320e-01 0.0000000000000000e+00  9.9661516627343660e-01 -4.7367331076090285e-02 0.0000000000000000e+00  4.3906969341260299e-01 4.1047478580814659e-03 0.0000000000000000e+00  6.6070436647746933e-01 -3.2898921246105661e-02 0.0000000000000000e+00  4.4031346495638851e-01 -2.7445983315996558e-01 0.0000000000000000e+00  2.1703687532412216e-01 -2.9011356238835262e-01 0.0000000000000000e+00  4.4735118715992661e-01 6.8733690400322569e-03 0.0000000000000000e+00  5.2363962785206641e-01 2.7042881175182121e-01 0.0000000000000000e+00  3.0746079649132513e-01 3.1776309722058843e-01 0.0000000000000000e+00  -1.8048592438671909e-01 -2.1616469197308691e-01 0.0000000000000000e+00  9.9347465098555354e-01 1.5333631486040450e-02 0.0000000000000000e+00  9.9033402799615100e-01 -4.6289822670868034e-03 0.0000000000000000e+00  1.0276282074847454e+00 -1.7028681068308603e-03 0.0000000000000000e+00  6.1100446157948396e-01 -3.4651211933525647e-02 0.0000000000000000e+00  1.0346769880188655e+00 -5.5648493083502283e-03 0.0000000000000000e+00  7.5620397634872716e-01 2.5064381328287543e-02 0.0000000000000000e+00  5.4841255190282212e-01 -4.2987862959932739e-02 0.0000000000000000e+00  5.1391929143742343e-01 4.8399540096720033e-02 0.0000000000000000e+00  6.7180317315843296e-01 1.5859588711696995e-01 0.0000000000000000e+00  4.3434516066263784e-01 -2.2493959645644688e-02 0.0000000000000000e+00  -9.9156550681644140e-02 1.7531500928422614e-01 0.0000000000000000e+00  4.3380996621033452e-01 -1.6134123876556843e-03 0.0000000000000000e+00  6.9638713603082869e-01 -1.6935596290619165e-01 0.0000000000000000e+00  4.0269034520769753e-01 -2.0958161954676854e-02 0.0000000000000000e+00  -9.0525556185138870e-02 2.6364471401251915e-01 0.0000000000000000e+00  4.1438781150617715e-01 4.1354462274104803e-02 0.0000000000000000e+00  4.3528214928561693e-01 -4.3723157775908588e-03 0.0000000000000000e+00  3.8213091067061611e-01 1.8019634379815866e-01 0.0000000000000000e+00  3.9881378271463419e-01 -1.4680340715872386e-01 0.0000000000000000e+00  1.0068957550967896e+00 6.1128799501445142e-03 0.0000000000000000e+00  1.0000503197405928e+00 -7.2757365258810719e-03 0.0000000000000000e+00  3.0581386002384602e-02 -3.5033346461964188e-01 0.0000000000000000e+00  6.3233708811907030e-01 -2.9053356675945485e-01 0.0000000000000000e+00  4.0548297480117082e-02 -1.3076581377004681e-01 0.0000000000000000e+00  -1.6051951673885126e-01 -2.8011170666120538e-01 0.0000000000000000e+00  3.8816331618283478e-01 -7.3320046247490403e-02 0.0000000000000000e+00  1.2200682440501989e-01 3.5177641108599333e-01 0.0000000000000000e+00  5.4207912865760499e-01 1.9856808274146327e-02 0.0000000000000000e+00  -1.4708679618961831e-01 2.0381000130143737e-01 0.0000000000000000e+00  4.8286283976648270e-01 9.7468900626736001e-03 0.0000000000000000e+00  4.2729057632957873e-01 9.5195329804528177e-04 0.0000000000000000e+00  4.0605242857246143e-01 1.9571161247691357e-02 0.0000000000000000e+00  4.5548973313050450e-01 -6.1905028986528662e-04 0.0000000000000000e+00  3.6742612972553423e-01 4.5902386221743086e-02 0.0000000000000000e+00  7.7763501965757809e-01 3.0653296981127641e-02 0.0000000000000000e+00  4.7558133153867971e-01 -4.2575680224858352e-02 0.0000000000000000e+00  2.5365306434349113e-02 -2.1961849225871871e-01 0.0000000000000000e+00  4.1084386487543667e-01 -3.8581827602182062e-01 0.0000000000000000e+00  3.4948756216375265e-01 7.2892411283802916e-02 0.0000000000000000e+00  9.9709723542503537e-01 4.0432810498968906e-03 0.0000000000000000e+00  4.9720041932688930e-01 3.9391856182498630e-01 0.0000000000000000e+00  6.4778090185817505e-01 2.8444701372173398e-01 0.0000000000000000e+00  1.0277009334147602e+00 -1.6819005324439942e-02 0.0000000000000000e+00  8.1577611129528727e-01 7.4869185329773200e-02 0.0000000000000000e+00  4.3567626482062760e-01 2.1997536630335605e-04 0.0000000000000000e+00  1.0270694484529244e+00 9.8172692744112819e-03 0.0000000000000000e+00  -8.7659674901907861e-02 -1.6279061283931051e-01 0.0000000000000000e+00  4.1851875651372639e-01 6.4900431631452092e-03 0.0000000000000000e+00  9.9772899552320604e-01 -3.4368443965026446e-03 0.0000000000000000e+00  6.5376757873170699e-01 2.7287941989872170e-03 0.0000000000000000e+00  4.6595712474194606e-01 1.2524697383378941e-03 0.0000000000000000e+00  5.8867870122133792e-01 5.6022650371237173e-02 0.0000000000000000e+00  4.0556624289861498e-01 4.3574044259234480e-03 0.0000000000000000e+00  8.4558357776648119e-01 -3.6582490522897936e-02 0.0000000000000000e+00  4.5259992435283919e-01 2.0488688866074502e-02 0.0000000000000000e+00  -1.2873578448664322e-01 1.5831345632310545e-01 0.0000000000000000e+00  2.3973227427058991e-01 5.1714266189491057e-02 0.0000000000000000e+00  7.2370081847750012e-01 -6.9705155482179745e-03 0.0000000000000000e+00  1.9948704365575368e-01 -4.2226576246520992e-01 0.0000000000000000e+00  4.1055459946141248e-01 -3.2346109070039496e-03 0.0000000000000000e+00  -1.9398162478898467e-01 1.5349511797808732e-01 0.0000000000000000e+00  3.0245320087878125e-01 -5.3044948477362179e-02 0.0000000000000000e+00  7.7357926932568633e-01 2.0121718718941919e-01 0.0000000000000000e+00  -8.0394367097838801e-02 3.6754181512888384e-01 0.0000000000000000e+00  -1.7476339735118607e-01 2.9767878980017626e-01 0.0000000000000000e+00  6.4097268442796262e-01 -4.6163476931961663e-02 0.0000000000000000e+00  4.6181470586710505e-01 3.5944924127271701e-03 0.0000000000000000e+00  7.9288590298401451e-01 -1.2506012499983715e-01 0.0000000000000000e+00  7.0522784754446433e-01 -1.1191514753141520e-01 0.0000000000000000e+00  5.0903408294410046e-01 4.4594968309488177e-02 0.0000000000000000e+00  4.4825867956435667e-01 1.0118382590553093e-01 0.0000000000000000e+00  9.3343621718888314e-01 8.9798596871149244e-02 0.0000000000000000e+00  3.8655150923717102e-01 -1.4045721888682935e-01 0.0000000000000000e+00  3.6959291287020501e-01 -2.7682019117572249e-02 0.0000000000000000e+00  4.0807668266540897e-01 4.5021699228870159e-05 0.0000000000000000e+00  2.9777064595158276e-01 4.4279844773246496e-01 0.0000000000000000e+00  2.3668386578525585e-01 -7.2427460694217044e-02 0.0000000000000000e+00  1.1055066911741428e-01 -1.4061566801411296e-01 0.0000000000000000e+00  9.2325918511703076e-01 -5.7998947820786267e-02 0.0000000000000000e+00  3.8313017379332709e-01 -6.7454087564575811e-03 0.0000000000000000e+00  2.2663247296678085e-01 7.2927645899056356e-02 0.0000000000000000e+00  9.9605445925965541e-01 1.7698299959966888e-02 0.0000000000000000e+00  6.3822139536759681e-01 1.0829058873393650e-01 0.0000000000000000e+00  4.3910087102062062e-01 -4.7385523274583573e-03 0.0000000000000000e+00  3.5424616267386522e-01 -3.8674354199602100e-02 0.0000000000000000e+00  1.0096238993651956e+00 -1.9848436277388653e-03 0.0000000000000000e+00  9.9985637836695485e-01 4.4009127680054196e-03 0.0000000000000000e+00  2.2777431820600341e-01 2.3115240589074496e-01 0.0000000000000000e+00  5.8571346344992559e-01 5.7438503480861415e-02 0.0000000000000000e+00  8.7766755541924613e-01 -1.2868444736623483e-01 0.0000000000000000e+00  4.4029771108049942e-01 -1.3525484305454296e-02 0.0000000000000000e+00  1.0034721286102088e+00 -2.2319682471176289e-03 0.0000000000000000e+00  5.9476992341178625e-01 -2.2362424019328989e-02 0.0000000000000000e+00  2.6777737845970179e-01 -6.4702039417746673e-02 0.0000000000000000e+00  3.6818027382648072e-01 -1.9970371515924963e-02 0.0000000000000000e+00  -1.5148233671945777e-01 -2.3077942902142676e-01 0.0000000000000000e+00  -1.4760313250587387e-01 -3.5332670519596748e-01 0.0000000000000000e+00  1.9605230045662322e-01 4.3084689219019409e-02 0.0000000000000000e+00  4.9048105539792725e-01 -8.2516775599815309e-02 0.0000000000000000e+00  4.5200696575087768e-01 1.1511476761343659e-03 0.0000000000000000e+00  -4.4751458362365171e-01 9.9752936747828896e-02 0.0000000000000000e+00  4.6912438834279513e-01 -4.8099643343399348e-02 0.0000000000000000e+00  4.4852593352251252e-01 -3.1413821662004293e-02 0.0000000000000000e+00  9.9770252952610483e-01 -1.5853985555726747e-04 0.0000000000000000e+00  8.1156426851393515e-02 8.1752807300021019e-02 0.0000000000000000e+00  9.6865134253636376e-01 -2.5041365661002311e-02 0.0000000000000000e+00  5.3642594902474394e-01 4.2652333037043397e-02 0.0000000000000000e+00  9.7295798835639435e-01 1.6303828762136156e-02 0.0000000000000000e+00  1.2369616234827407e-01 -2.2161920450502789e-02 0.0000000000000000e+00  2.4171425717674744e-01 6.4044908332672151e-02 0.0000000000000000e+00  5.3393947434476352e-01 -3.9631831326757927e-01 0.0000000000000000e+00  7.3978826994137958e-01 -2.9112861364500042e-01 0.0000000000000000e+00  9.8672055207708809e-01 -2.1079731683756608e-02 0.0000000000000000e+00  4.5690842764465295e-01 1.6896463721639499e-01 0.0000000000000000e+00  4.0344623634504534e-01 -1.0258877874004218e-03 0.0000000000000000e+00  4.2337376899117629e-01 -2.4887111957102576e-01 0.0000000000000000e+00  -3.8673061284517252e-01 -1.0862605821892206e-01 0.0000000000000000e+00  4.6576243365735165e-01 -1.6813456107256711e-01 0.0000000000000000e+00  -6.1056944253258541e-02 -6.8631146161956494e-02 0.0000000000000000e+00  4.9485391152361796e-01 -1.1320689048695157e-02 0.0000000000000000e+00  9.6732524479405146e-01 -1.6258072173393520e-02 0.0000000000000000e+00  9.8292308919586613e-01 3.5584298459391289e-02 0.0000000000000000e+00  6.9800266604678152e-01 2.8851389947179984e-01 0.0000000000000000e+00  8.3383747363782634e-01 3.2530986302241514e-02 0.0000000000000000e+00  9.9918332157220635e-01 -3.2520792424083865e-03 0