<?xml version="1.0"?>
<VTKFile type="UnstructuredGrid"  version="0.1"  >
<UnstructuredGrid>
<Piece  NumberOfPoints="622" NumberOfCells="1116">
<Points>
<DataArray  type="Float64"  NumberOfComponents="3"  format="ascii">-6 -2 0  -6 2 0  6 2 0  6 -2 0  -2.8 0 0  -1.2 0 0  -5.500000000001853 -2 0  -5.000000000003705 -2 0  -4.500000000005556 -2 0  -4.000000000007409 -2 0  -3.50000000000926 -2 0  -3.000000000011112 -2 0  -2.500000000012963 -2 0  -2.000000000014814 -2 0  -1.500000000016665 -2 0  -1.000000000018516 -2 0  -0.5000000000203677 -2 0  -2.204547655537681e-11 -2 0  0.4999999999796305 -2 0  0.9999999999814779 -2 0  1.499999999983327 -2 0  1.999999999985175 -2 0  2.499999999987029 -2 0  2.999999999988882 -2 0  3.499999999990735 -2 0  3.999999999992589 -2 0  4.49999999999444 -2 0  4.999999999996293 -2 0  5.499999999998147 -2 0  6 -1.500000000001387 0  6 -1.000000000002774 0  6 -0.5000000000041616 0  6 -5.505595979116151e-12 0  6 0.4999999999958384 0  6 0.9999999999972258 0  6 1.499999999998613 0  5.500000000001853 2 0  5.000000000003705 2 0  4.500000000005556 2 0  4.000000000007409 2 0  3.50000000000926 2 0  3.000000000011112 2 0  2.500000000012963 2 0  2.000000000014814 2 0  1.500000000016665 2 0  1.000000000018516 2 0  0.5000000000203677 2 0  2.204547655537681e-11 2 0  -0.4999999999796305 2 0  -0.9999999999814779 2 0  -1.499999999983327 2 0  -1.999999999985175 2 0  -2.499999999987029 2 0  -2.999999999988882 2 0  -3.499999999990735 2 0  -3.999999999992589 2 0  -4.49999999999444 2 0  -4.999999999996293 2 0  -5.499999999998147 2 0  -6 1.500000000001387 0  -6 1.000000000002774 0  -6 0.5000000000041616 0  -6 5.505595979116151e-12 0  -6 -0.4999999999958384 0  -6 -0.9999999999972258 0  -6 -1.499999999998613 0  -2.796147781337886 -0.07841371226233997 0  -2.784628224322852 -0.1560722576115546 0  -2.765552268586196 -0.2322277418021561 0  -2.739103626009626 -0.30614674589063 0  -2.705537011479457 -0.3771173894593519 0  -2.665175689843037 -0.4444561864141836 0  -2.618408362691456 -0.5075146273293722 0  -2.565685424950688 -0.5656854249477874 0  -2.507514627332613 -0.6184083626887972 0  -2.444456186417533 -0.6651756898407991 0  -2.377117389462776 -0.7055370114776264 0  -2.306146745894456 -0.7391036260080417 0  -2.232227741806235 -0.7655522685849585 0  -2.15607225761588 -0.784628224321992 0  -2.078413712266957 -0.7961477813374315 0  -2.000000000003407 -0.7999999999999998 0  -1.921586287739523 -0.7961477813380696 0  -1.843927742389945 -0.7846282243231506 0  -1.767772258198879 -0.7655522685865098 0  -1.693853254109962 -0.7391036260098718 0  -1.622882610540873 -0.7055370114795768 0  -1.555543813585629 -0.6651756898429115 0  -1.49248537267008 -0.6184083626910072 0  -1.434314575051535 -0.5656854249500112 0  -1.381591637310384 -0.5075146273316149 0  -1.334824310158267 -0.4444561864161359 0  -1.294462988521423 -0.3771173894609975 0  -1.260896373990956 -0.3061467458920351 0  -1.234447731414138 -0.2322277418032578 0  -1.215371775677287 -0.156072257612254 0  -1.203852218662147 -0.07841371226267954 0  -1.203852218662115 0.07841371226235888 0  -1.215371775677132 0.156072257611478 0  -1.234447731413795 0.232227741802127 0  -1.260896373990353 0.3061467458905811 0  -1.294462988520456 0.3771173894591898 0  -1.334824310156812 0.444456186413959 0  -1.381591637308413 0.5075146273292139 0  -1.434314575049147 0.5656854249476236 0  -1.492485372667197 0.6184083626886415 0  -1.555543813582104 0.6651756898405565 0  -1.62288261053673 0.7055370114773629 0  -1.693853254105125 0.7391036260078683 0  -1.767772258193396 0.7655522685848468 0  -1.84392774238373 0.7846282243219146 0  -1.921586287732977 0.7961477813374253 0  -1.999999999996558 0.8 0  -2.078413712260516 0.7961477813380661 0  -2.156072257610207 0.7846282243231205 0  -2.232227741801178 0.7655522685864928 0  -2.306146745890059 0.7391036260098632 0  -2.377117389459098 0.7055370114795929 0  -2.444456186414405 0.6651756898428894 0  -2.50751462732998 0.6184083626909587 0  -2.565685424948549 0.5656854249499272 0  -2.61840836268981 0.5075146273313792 0  -2.665175689841831 0.4444561864159886 0  -2.705537011478692 0.3771173894607835 0  -2.739103626009108 0.3061467458918818 0  -2.76555226858589 0.2322277418031643 0  -2.784628224322724 0.1560722576122001 0  -2.796147781337853 0.07841371226267957 0  0.6720367661319522 0.1312687487860887 0  -4.389489086394485 0.3544472233398538 0  -3.816221554046232 -0.6097988664512611 0  -3.552726516474419 0.9342959806851625 0  -0.2536610443052337 0.8162373554653355 0  -0.1843238977799138 -0.6649951410982842 0  -3.613359951620445 0.1086570650978273 0  -3.146954163409593 -1.074378179335012 0  -0.4255266515582625 0.07734891565364931 0  -0.9413731612925856 1.168014724254929 0  -2.947764053183577 1.200029094390044 0  -0.8319852757411681 -1.058626838707328 0  2.675418990747819 -1.137325591670363e-12 0  -2.602010642259726 -1.287560129290477 0  -2.334401622060699 1.335006108940604 0  -1.524718496628401 1.32890816230333 0  -1.369813829148039 -1.26145150481762 0  -3.294065651892671 -0.4630240940010318 0  -2.072749204569071 -1.388981302138359 0  -0.7546165313921411 0.5601792161340381 0  -3.224879719581335 0.4382689715877901 0  -0.7073137361349826 -0.4625305410752652 0  4.326242945813966 0.3262429458150917 0  -3.187880061217201 0.07437712177460168 0  -2.94792024259867 0.7030255657465158 0  -2.678809277907896 0.9152683582887104 0  -4.911626141576894 -0.5700186648601188 0  -2.980647654587299 -0.5685006168686053 0  -2.769438919323564 -0.8202775213660614 0  -1.936950121013948 1.220669938589229 0  -0.8971643766260747 0.2762459428874499 0  -0.8760878018253068 -0.06836412137772707 0  -1.086827485441145 0.6772548942594016 0  -1.31355927028917 0.8808768148414213 0  -1.034266382739347 -0.5912381576649568 0  -1.241594139118264 -0.836771920085274 0  1.667161185638911 -0.6367996576268693 0  1.778189842800902 0.7191719841256095 0  -3.065106827511819 -0.266795371500425 0  3.714311277362231 -0.7275465302492842 0  -1.728329421201519 -1.09954751473283 0  4.870629493137888 -0.7325040699186681 0  -3.024707894719303 0.2567561910603656 0  -4.375540207252226 1.228935704312058 0  -2.272077148001781 -1.086192861256262 0  3.351408248797803 0.9175227128129597 0  -5.141847419540732 0.8091901960109126 0  0.5769368286199241 1.111816231125821 0  0.7411482978492124 -1.079569101289617 0  -1.074013749991219 0.430231207546053 0  -1.04664573441257 -0.3358382377487088 0  -2.439195336951085 0.9224778883059374 0  -2.902607676587358 0.4360473765597399 0  -1.629450174302152 1.035617385691805 0  -2.146859933125513 1.032375363966426 0  2.587625196444542 -0.9999926061845814 0  -2.529286802957126 -0.8830616815739111 0  -1.493798157676768 -0.8794705728517196 0  -1.932158132383022 -1.026681566564148 0  -4.09956359341904 -0.1372485582942864 0  5.055802064425553 1.050933510837308 0  -4.413659685984891 -1.207626391697488 0  -4.961411026474009 0.1201902955685026 0  -3.771151641156835 -1.303594976371997 0  -3.001321503506133 -0.04919177107285733 0  -3.881733605683001 0.5124517634812003 0  -0.1971627317996802 -1.336445372382849 0  -2.742825060181767 0.6732573903735507 0  2.520439429199979 1.129372838786189 0  -1.026326428668429 0.1384273198437734 0  -2.779290004861729 -0.5844691722665721 0  -2.895095740820851 -0.4261289730972082 0  -1.275682076193407 0.6630703172777138 0  0.1045291701958869 0.3433373435296472 0  5.175560481258801 0.0608563229178163 0  -1.211574424201636 -0.5847362589868093 0  -1.85847006217035 1.007917631940711 0  4.152535916385823 1.131901130662082 0  -1.04878257200685 -0.1253529988863012 0  1.432836501626023 0.05634449574318775 0  3.560672936003603 0.01188897172456759 0  -3.351823698389408 -0.1821329582635926 0  -5.145153363200735 -1.259166339382508 0  0.03473693330309885 -0.1724947236036572 0  -4.377830921337186 -0.6172564090242229 0  -0.3943750728122595 1.410897156959435 0  -1.661073679471639 -0.9342065000197183 0  -1.49086536677686 0.8331714487926741 0  -2.584486130952032 0.7871482690034864 0  4.270535884593893 -1.259607924744415 0  -1.757417028085795 -1.505182186951191 0  -3.430586920998477 1.425579221231371 0  -2.917598827418652 -0.2298465409534677 0  -2.328978331116049 -0.9300959620317677 0  -2.148543000691344 -0.9751580214451921 0  1.002654111360038 -0.4521702885594788 0  -4.628651824080903 -0.1127998710567241 0  -2.948904386702482 0.1555943115410545 0  0.4165242577134774 -0.5629432649478633 0  -3.698137692471105 -0.3173027948676715 0  -3.491400684461791 -0.7926319721650269 0  -0.3844454817728994 0.4680628696134375 0  -3.207830713508533 0.9778749990559993 0  3.229909751065535 -1.326302454776001 0  5.330007715336748 -1.312905173261894 0  -2.649214054100534 -0.713314536278899 0  1.342022964818772 -1.328315248672686 0  -2.556460939068198 1.202372762828344 0  -0.3497819755044588 -0.3080427614060888 0  -4.928440909495523 1.387622767511967 0  1.309170811945155 1.337467055109531 0  -1.352031940181449 -0.7151198948590243 0  -0.6132855723904642 0.9519045895123004 0  4.266838388406324 -0.3707357390867402 0  -3.834389788310238 1.371594798941152 0  -1.187890214580146 0.4851427123079557 0  -1.109118888029193 0.3185947354467283 0  0.1837819401738013 1.234799661476361 0  1.108165254659559 0.6237223548284967 0  -0.5266600156584522 -0.8113991260886402 0  -4.643822083543982 0.7834094684931707 0  -1.146235204666366 -0.4027330721405781 0  2.049029845992713 -0.2664662499985428 0  2.002665761665898 -1.328912351029848 0  -1.678783505586872 0.8978832065736417 0  -2.049499525232052 0.9483890761590005 0  -2.229972236535132 0.9181006323151361 0  -3.033763529945482 -1.54240494280775 0  -3.562344364746847 0.5622550957224539 0  -5.524396842903405 -0.2709714867672603 0  -0.9710982764034376 -1.549038578476423 0  3.058819320130555 -0.5375106252795963 0  -4.170365230099585 0.7342553699229977 0  -1.045878746461381 -8.187420622554697e-05 0  -1.864822945411764 -0.9219031104673102 0  -0.6251005091687033 -0.2120650512195049 0  2.317562622406059 0.4886417799113238 0  -0.6674371191466613 0.1483993095055008 0  -2.705757882979874 1.609712312948224 0  
[...]
<PointData  Vectors="f_22"> 
<DataArray  type="Float64"  Name="f_22"  NumberOfComponents="3" format="ascii">0.0000000000000000e+00 0.0000000000000000e+00 0.0000000000000000e+00  0.0000000000000000e+00 0.0000000000000000e+00 0.0000000000000000e+00  0.0000000000000000e+00 0.0000000000000000e+00 0.0000000000000000e+00  0.0000000000000000e+00 0.0000000000000000e+00 0.0000000000000000e+00  9.9999997487085956e-01 0.0000000000000000e+00 0.0000000000000000e+00  9.9999997487085956e-01 0.0000000000000000e+00 0.0000000000000000e+00  0.0000000000000000e+00 0.0000000000000000e+00 0.0000000000000000e+00  0.0000000000000000e+00 0.0000000000000000e+00 0.0000000000000000e+00  0.0000000000000000e+00 0.0000000000000000e+00 0.0000000000000000e+00  0.0000000000000000e+00 0.0000000000000000e+00 0.0000000000000000e+00  0.0000000000000000e+00 0.0000000000000000e+00 0.0000000000000000e+00  0.0000000000000000e+00 0.0000000000000000e+00 0.0000000000000000e+00  0.0000000000000000e+00 0.0000000000000000e+00 0.0000000000000000e+00  0.0000000000000000e+00 0.0000000000000000e+00 0.0000000000000000e+00  0.0000000000000000e+00 0.0000000000000000e+00 0.0000000000000000e+00  0.0000000000000000e+00 0.0000000000000000e+00 0.0000000000000000e+00  0.0000000000000000e+00 0.0000000000000000e+00 0.0000000000000000e+00  0.0000000000000000e+00 0.0000000000000000e+00 0.0000000000000000e+00  0.0000000000000000e+00 0.0000000000000000e+00 0.0000000000000000e+00  0.0000000000000000e+00 0.0000000000000000e+00 0.0000000000000000e+00  0.0000000000000000e+00 0.0000000000000000e+00 0.0000000000000000e+00  0.0000000000000000e+00 0.0000000000000000e+00 0.0000000000000000e+00  0.0000000000000000e+00 0.0000000000000000e+00 0.0000000000000000e+00  0.0000000000000000e+00 0.0000000000000000e+00 0.0000000000000000e+00  0.0000000000000000e+00 0.0000000000000000e+00 0.0000000000000000e+00  0.0000000000000000e+00 0.0000000000000000e+00 0.0000000000000000e+00  0.0000000000000000e+00 0.0000000000000000e+00 0.0000000000000000e+00  0.0000000000000000e+00 0.0000000000000000e+00 0.0000000000000000e+00  0.0000000000000000e+00 0.0000000000000000e+00 0.0000000000000000e+00  3.1255656487701838e-01 1.3257806081614946e-04 0.0000000000000000e+00  3.4686619104282540e-01 1.5267585918935111e-04 0.0000000000000000e+00  3.4886088304934859e-01 -2.9531802760181976e-05 0.0000000000000000e+00  3.4899089018407592e-01 -1.5353545897155445e-05 0.0000000000000000e+00  3.4887391546461710e-01 -8.0668210497567901e-06 0.0000000000000000e+00  3.4754219474025272e-01 2.2795995802865133e-04 0.0000000000000000e+00  3.1314305347636812e-01 -5.3600281735935050e-04 0.0000000000000000e+00  0.0000000000000000e+00 0.0000000000000000e+00 0.0000000000000000e+00  0.0000000000000000e+00 0.0000000000000000e+00 0.0000000000000000e+00  0.0000000000000000e+00 0.0000000000000000e+00 0.0000000000000000e+00  0.0000000000000000e+00 0.0000000000000000e+00 0.0000000000000000e+00  0.0000000000000000e+00 0.0000000000000000e+00 0.0000000000000000e+00  0.0000000000000000e+00 0.0000000000000000e+00 0.0000000000000000e+00  0.0000000000000000e+00 0.0000000000000000e+00 0.0000000000000000e+00  0.0000000000000000e+00 0.0000000000000000e+00 0.0000000000000000e+00  0.0000000000000000e+00 0.0000000000000000e+00 0.0000000000000000e+00  0.0000000000000000e+00 0.0000000000000000e+00 0.0000000000000000e+00  0.0000000000000000e+00 0.0000000000000000e+00 0.0000000000000000e+00  0.0000000000000000e+00 0.0000000000000000e+00 0.0000000000000000e+00  0.0000000000000000e+00 0.0000000000000000e+00 0.0000000000000000e+00  0.0000000000000000e+00 0.0000000000000000e+00 0.0000000000000000e+00  0.0000000000000000e+00 0.0000000000000000e+00 0.0000000000000000e+00  0.0000000000000000e+00 0.0000000000000000e+00 0.0000000000000000e+00  0.0000000000000000e+00 0.0000000000000000e+00 0.0000000000000000e+00  0.0000000000000000e+00 0.0000000000000000e+00 0.0000000000000000e+00  0.0000000000000000e+00 0.0000000000000000e+00 0.0000000000000000e+00  0.0000000000000000e+00 0.0000000000000000e+00 0.0000000000000000e+00  0.0000000000000000e+00 0.0000000000000000e+00 0.0000000000000000e+00  0.0000000000000000e+00 0.0000000000000000e+00 0.0000000000000000e+00  0.0000000000000000e+00 0.0000000000000000e+00 0.0000000000000000e+00  3.0519853674667763e-01 -1.3179284596428237e-03 0.0000000000000000e+00  3.4403479454521257e-01 -9.5446462875906080e-04 0.0000000000000000e+00  3.5512115403082289e-01 -1.5460096880165885e-03 0.0000000000000000e+00  3.6126775405789302e-01 1.4432558386137421e-03 0.0000000000000000e+00  3.5645413407030835e-01 2.9306816876856310e-04 0.0000000000000000e+00  3.4576374790424153e-01 6.5219400878200164e-04 0.0000000000000000e+00  3.0502345635480094e-01 1.0150655482486497e-03 0.0000000000000000e+00  9.9999997487085956e-01 0.0000000000000000e+00 0.0000000000000000e+00  9.9999997487085956e-01 0.0000000000000000e+00 0.0000000000000000e+00  9.9999997487085956e-01 0.0000000000000000e+00 0.0000000000000000e+00  9.9999997487085956e-01 0.0000000000000000e+00 0.0000000000000000e+00  9.9999997487085956e-01 0.0000000000000000e+00 0.0000000000000000e+00  9.9999997487085956e-01 0.0000000000000000e+00 0.0000000000000000e+00  9.9999997487085956e-01 0.0000000000000000e+00 0.0000000000000000e+00  9.9999997487085956e-01 0.0000000000000000e+00 0.0000000000000000e+00  9.9999997487085956e-01 0.0000000000000000e+00 0.0000000000000000e+00  9.9999997487085956e-01 0.0000000000000000e+00 0.0000000000000000e+00  9.9999997487085956e-01 0.0000000000000000e+00 0.0000000000000000e+00  9.9999997487085956e-01 0.0000000000000000e+00 0.0000000000000000e+00  9.9999997487085956e-01 0.0000000000000000e+00 0.0000000000000000e+00  9.9999997487085956e-01 0.0000000000000000e+00 0.0000000000000000e+00  9.9999997487085956e-01 0.0000000000000000e+00 0.0000000000000000e+00  9.9999997487085956e-01 0.0000000000000000e+00 0.0000000000000000e+00  9.9999997487085956e-01 0.0000000000000000e+00 0.0000000000000000e+00  9.9999997487085956e-01 0.0000000000000000e+00 0.0000000000000000e+00  9.9999997487085956e-01 0.0000000000000000e+00 0.0000000000000000e+00  9.9999997487085956e-01 0.0000000000000000e+00 0.0000000000000000e+00  9.9999997487085956e-01 0.0000000000000000e+00 0.0000000000000000e+00  9.9999997487085956e-01 0.0000000000000000e+00 0.0000000000000000e+00  9.9999997487085956e-01 0.0000000000000000e+00 0.0000000000000000e+00  9.9999997487085956e-01 0.0000000000000000e+00 0.0000000000000000e+00  9.9999997487085956e-01 0.0000000000000000e+00 0.0000000000000000e+00  9.9999997487085956e-01 0.0000000000000000e+00 0.0000000000000000e+00  9.9999997487085956e-01 0.0000000000000000e+00 0.0000000000000000e+00  9.9999997487085956e-01 0.0000000000000000e+00 0.0000000000000000e+00  9.9999997487085956e-01 0.0000000000000000e+00 0.0000000000000000e+00  9.9999997487085956e-01 0.0000000000000000e+00 0.0000000000000000e+00  9.9999997487085956e-01 0.0000000000000000e+00 0.0000000000000000e+00  9.9999997487085956e-01 0.0000000000000000e+00 0.0000000000000000e+00  9.9999997487085956e-01 0.0000000000000000e+00 0.0000000000000000e+00  9.9999997487085956e-01 0.0000000000000000e+00 0.0000000000000000e+00  9.9999997487085956e-01 0.0000000000000000e+00 0.0000000000000000e+00  9.9999997487085956e-01 0.0000000000000000e+00 0.0000000000000000e+00  9.9999997487085956e-01 0.0000000000000000e+00 0.0000000000000000e+00  9.9999997487085956e-01 0.0000000000000000e+00 0.0000000000000000e+00  9.9999997487085956e-01 0.0000000000000000e+00 0.0000000000000000e+00  9.9999997487085956e-01 0.0000000000000000e+00 0.0000000000000000e+00  9.9999997487085956e-01 0.0000000000000000e+00 0.0000000000000000e+00  9.9999997487085956e-01 0.0000000000000000e+00 0.0000000000000000e+00  9.9999997487085956e-01 0.0000000000000000e+00 0.0000000000000000e+00  9.9999997487085956e-01 0.0000000000000000e+00 0.0000000000000000e+00  9.9999997487085956e-01 0.0000000000000000e+00 0.0000000000000000e+00  9.9999997487085956e-01 0.0000000000000000e+00 0.0000000000000000e+00  9.9999997487085956e-01 0.0000000000000000e+00 0.0000000000000000e+00  9.9999997487085956e-01 0.0000000000000000e+00 0.0000000000000000e+00  9.9999997487085956e-01 0.0000000000000000e+00 0.0000000000000000e+00  9.9999997487085956e-01 0.0000000000000000e+00 0.0000000000000000e+00  9.9999997487085956e-01 0.0000000000000000e+00 0.0000000000000000e+00  9.9999997487085956e-01 0.0000000000000000e+00 0.0000000000000000e+00  9.9999997487085956e-01 0.0000000000000000e+00 0.0000000000000000e+00  9.9999997487085956e-01 0.0000000000000000e+00 0.0000000000000000e+00  9.9999997487085956e-01 0.0000000000000000e+00 0.0000000000000000e+00  9.9999997487085956e-01 0.0000000000000000e+00 0.0000000000000000e+00  9.9999997487085956e-01 0.0000000000000000e+00 0.0000000000000000e+00  9.9999997487085956e-01 0.0000000000000000e+00 0.0000000000000000e+00  9.9999997487085956e-01 0.0000000000000000e+00 0.0000000000000000e+00  9.9999997487085956e-01 0.0000000000000000e+00 0.0000000000000000e+00  9.9999997487085956e-01 0.0000000000000000e+00 0.0000000000000000e+00  9.9999997487085956e-01 0.0000000000000000e+00 0.0000000000000000e+00  6.5815264011079699e-01 2.1597322077090669e-02 0.0000000000000000e+00  3.7225048859079196e-01 -1.2157807436488222e-02 0.0000000000000000e+00  3.7802566471987720e-01 5.7163583658587230e-02 0.0000000000000000e+00  3.3338476870439770e-01 -8.8147103594808165e-02 0.0000000000000000e+00  5.9438157283591997e-01 2.2470581409693327e-01 0.0000000000000000e+00  6.6716577376375852e-01 -1.6693653349489856e-01 0.0000000000000000e+00  4.4823012873506390e-01 -1.9546938985999782e-02 0.0000000000000000e+00  2.4700374343532344e-01 1.3086181063271779e-01 0.0000000000000000e+00  8.8267135862127821e-01 1.6370392687567951e-02 0.0000000000000000e+00  8.0960939187543379e-02 1.2619216587333218e-01 0.0000000000000000e+00  1.7296771936545094e-01 -1.1880402804231688e-01 0.0000000000000000e+00  3.6471291880435741e-01 -2.0841715801920785e-01 0.0000000000000000e+00  3.7693794946094406e-01 -1.7125380065167203e-04 0.0000000000000000e+00  2.8292542738534446e-02 1.5974820507410112e-01 0.0000000000000000e+00  -1.3168398234172879e-01 -2.3266303305352493e-01 0.0000000000000000e+00  -3.8950035995151455e-01 -2.4430623076535829e-01 0.0000000000000000e+00  -2.6634402913884142e-01 1.5592982919653217e-01 0.0000000000000000e+00  4.4680604537639973e-01 1.4805728768534229e-01 0.0000000000000000e+00  -2.9210027934826094e-01 2.7573982039087358e-01 0.0000000000000000e+00  8.9265000965786845e-01 1.1925695468514828e-01 0.0000000000000000e+00  4.6933905466203268e-01 -1.6590699063685951e-01 0.0000000000000000e+00  8.9598199453082628e-01 -9.8580840877564593e-02 0.0000000000000000e+00  3.4966237084938351e-01 6.3350593659445415e-04 0.0000000000000000e+00  5.9104498996785348e-01 -3.8915874671362087e-02 0.0000000000000000e+00  3.1540107726457423e-01 -3.0695848265230191e-01 0.0000000000000000e+00  6.3093079141596065e-02 -3.6049239551022549e-01 0.0000000000000000e+00  3.5796615976808194e-01 6.6251028262261490e-03 0.0000000000000000e+00  4.1433250403851640e-01 3.1284867058044330e-01 0.0000000000000000e+00  1.5784101090588282e-01 3.7175903005232119e-01 0.0000000000000000e+00  -3.2196041329419756e-01 -3.3909068137481979e-01 0.0000000000000000e+00  9.6133041006524422e-01 4.1301743781125604e-02 0.0000000000000000e+00  9.7096632818553230e-01 -1.1133725354460805e-02 0.0000000000000000e+00  9.7467857260217849e-01 7.7824847725504687e-02 0.0000000000000000e+00  6.8102431456918233e-01 1.5395593595546084e-02 0.0000000000000000e+00  9.6386970901935176e-01 -7.4922948731158581e-02 0.0000000000000000e+00  8.0709295196487929e-01 -4.3744563657221645e-02 0.0000000000000000e+00  4.1026622080558817e-01 -9.3193556137785724e-02 0.0000000000000000e+00  3.7740027586086011e-01 9.8837877966874904e-02 0.0000000000000000e+00  6.0093416388331877e-01 1.8865825343139536e-01 0.0000000000000000e+00  3.4899723797794879e-01 -3.4045332400405083e-03 0.0000000000000000e+00  -1.2225865330631501e-01 2.2659237781307334e-01 0.0000000000000000e+00  3.4867267841820393e-01 -3.3657966543297298e-04 0.0000000000000000e+00  6.2993033246504682e-01 -2.0258477688331741e-01 0.0000000000000000e+00  3.2926233897800533e-01 -1.8842832891056011e-02 0.0000000000000000e+00  -2.4928234881213343e-01 4.1930969417438585e-01 0.0000000000000000e+00  3.4476464772601917e-01 6.7964283034614931e-03 0.0000000000000000e+00  3.5056692052084709e-01 -4.3680056581909110e-03 0.0000000000000000e+00  2.5811197611121717e-01 1.4105900115633110e-01 0.0000000000000000e+00  2.7864133283576203e-01 -1.3784251260472594e-01 0.0000000000000000e+00  9.7330784902604495e-01 4.2337738405161467e-02 0.0000000000000000e+00  9.7710849194958149e-01 -3.4007573786482920e-02 0.0000000000000000e+00  -1.3458258391894523e-01 -4.9750344342181690e-01 0.0000000000000000e+00  5.4203236701543744e-01 -3.4894787545806794e-01 0.0000000000000000e+00  7.2461716326709960e-02 -1.5968038665448167e-01 0.0000000000000000e+00  -2.7193682231818289e-01 -3.9583651049622004e-01 0.0000000000000000e+00  3.3458524746125673e-01 -3.0421478680479640e-02 0.0000000000000000e+00  -4.2805824465161423e-02 4.8563072157643644e-01 0.0000000000000000e+00  6.1460313183787807e-01 1.6953549676277695e-02 0.0000000000000000e+00  -1.7014624320228910e-01 2.8084816648145217e-01 0.0000000000000000e+00  3.9127863087749121e-01 9.9413406117945056e-03 0.0000000000000000e+00  3.4577058338511224e-01 5.2187526072507932e-04 0.0000000000000000e+00  3.3085340900854410e-01 1.7966031787303313e-02 0.0000000000000000e+00  3.6409492753994743e-01 -9.1848359380840327e-04 0.0000000000000000e+00  2.9710716834349171e-01 4.2074541453270588e-02 0.0000000000000000e+00  7.3066575788768928e-01 3.7032145112210188e-02 0.0000000000000000e+00  3.8504988518465066e-01 -4.4584433688578860e-02 0.0000000000000000e+00  -1.2816635864831692e-02 -2.2284260525574665e-01 0.0000000000000000e+00  2.5735318266010548e-01 -4.6926633201165469e-01 0.0000000000000000e+00  3.2274804894889653e-01 3.1947943687802627e-02 0.0000000000000000e+00  9.8806940951780575e-01 1.3168090491624929e-02 0.0000000000000000e+00  3.6394494388200244e-01 4.7671369859903845e-01 0.0000000000000000e+00  5.5965961365877626e-01 3.4526220219981446e-01 0.0000000000000000e+00  1.0043978969929905e+00 2.4597582211793482e-02 0.0000000000000000e+00  7.2357670904697524e-01 6.8714015552324662e-02 0.0000000000000000e+00  3.4913997003356528e-01 1.1014766486984215e-04 0.0000000000000000e+00  9.9035411764933567e-01 -3.3368890037277409e-02 0.0000000000000000e+00  -7.8975041373135976e-02 -2.3007277260037251e-01 0.0000000000000000e+00  3.4346177913839754e-01 1.1306903006228703e-03 0.0000000000000000e+00  9.9075582016318642e-01 -1.1421142935643778e-02 0.0000000000000000e+00  5.3887671296538853e-01 8.9601257983640548e-03 0.0000000000000000e+00  3.5364995483027223e-01 1.4877103505701942e-04 0.0000000000000000e+00  5.0748358931733362e-01 6.3955724952737311e-02 0.0000000000000000e+00  3.3323577696532952e-01 4.4702027842329194e-03 0.0000000000000000e+00  7.7179579314788926e-01 -3.6135118852502014e-02 0.0000000000000000e+00  3.6300532836296145e-01 1.9785471844735607e-02 0.0000000000000000e+00  -1.1687412670814379e-01 2.2217580202796025e-01 0.0000000000000000e+00  3.0253303888757649e-01 7.6940237723524332e-02 0.0000000000000000e+00  7.8762427780025168e-01 -3.2883787381832526e-03 0.0000000000000000e+00  2.4587429542013442e-02 -5.5037995343584023e-01 0.0000000000000000e+00  3.3894396325918547e-01 -6.5858233640781578e-04 0.0000000000000000e+00  -4.6736731031677126e-01 2.4313670217206179e-01 0.0000000000000000e+00  2.4448677992486886e-01 -4.5962842178758435e-02 0.0000000000000000e+00  7.2188698600114076e-01 2.4598532535459913e-01 0.0000000000000000e+00  -2.2722848595529160e-01 4.9725072495372230e-01 0.0000000000000000e+00  -2.6370226021039517e-01 3.8672020773112675e-01 0.0000000000000000e+00  5.4727009072004007e-01 -6.9220507322133959e-02 0.0000000000000000e+00  3.6976358319160202e-01 3.2164914040884625e-03 0.0000000000000000e+00  7.4724937137183134e-01 -1.5312042614203811e-01 0.0000000000000000e+00  5.9153931544100702e-01 -9.7327393395162526e-02 0.0000000000000000e+00  4.1893944322865034e-01 4.8073854452202067e-02 0.0000000000000000e+00  3.5282633526677043e-01 1.0516525935336027e-01 0.0000000000000000e+00  8.0404440694120638e-01 1.1420626033890872e-01 0.0000000000000000e+00  2.8467673016580686e-01 -1.4116299585813366e-01 0.0000000000000000e+00  3.2858114267953253e-01 -5.1884979340715140e-03 0.0000000000000000e+00  3.3625178082100043e-01 -2.5855606541002569e-05 0.0000000000000000e+00  1.2850303727088150e-01 5.5844693347910190e-01 0.0000000000000000e+00  1.8220405551120283e-01 -1.0785158640214133e-01 0.0000000000000000e+00  -1.2404658939029593e-02 -2.2458238553232460e-01 0.0000000000000000e+00  8.3448705399427214e-01 -7.2487375525795636e-02 0.0000000000000000e+00  3.1982425440443435e-01 -5.9883905919856546e-03 0.0000000000000000e+00  1.7154485062148023e-01 1.0654866166145804e-01 0.0000000000000000e+00  9.9712442332091011e-01 -1.4352550396434247e-02 0.0000000000000000e+00  5.6061794184427294e-01 2.7305232208085833e-01 0.0000000000000000e+00  3.4973858256892154e-01 -7.5070029680913823e-04 0.0000000000000000e+00  2.9053313996579849e-01 -3.4785333482564663e-02 0.0000000000000000e+00  9.8369704310210504e-01 2.8880846911947672e-02 0.0000000000000000e+00  9.8577416603318080e-01 2.3730783761608740e-02 0.0000000000000000e+00  1.5226295993391464e-01 1.7491711911840754e-01 0.0000000000000000e+00  4.7798911081365264e-01 9.2188581154954610e-02 0.0000000000000000e+00  7.0053555208543428e-01 -2.3087499095490388e-01 0.0000000000000000e+00  3.5398525142626835e-01 -1.2677620745141532e-02 0.0000000000000000e+00  9.8377838022522746e-01 -2.7585778758042828e-02 0.0000000000000000e+00  4.2806006159878396e-01 -3.9063423069248128e-02 0.0000000000000000e+00  2.7147750679000043e-01 -5.4873676515808767e-02 0.0000000000000000e+00  4.3417590396868483e-01 -4.2782548761799953e-02 0.0000000000000000e+00  -1.9421519440853269e-01 -2.8790358871466365e-01 0.0000000000000000e+00  -2.6689102468524922e-01 -4.5037590517391768e-01 0.0000000000000000e+00  1.6158812833092864e-01 3.2585618291432826e-02 0.0000000000000000e+00  3.9796011379394181e-01 -8.8766668162669843e-02 0.0000000000000000e+00  3.5951082597259570e-01 8.9408230832765793e-04 0.0000000000000000e+00  -5.4482896215198551e-01 -3.9341446440245384e-02 0.0000000000000000e+00  3.5496150834132001e-01 -1.1459199613719655e-02 0.0000000000000000e+00  3.6019047274843496e-01 -3.1006245871335377e-02 0.0000000000000000e+00  9.9225168243792350e-01 -2.4100458956500029e-04 0.0000000000000000e+00  1.1006899294723038e-01 1.1262048836695139e-01 0.0000000000000000e+00  9.1452427650117230e-01 -4.4423801759707573e-02 0.0000000000000000e+00  3.7874685281177711e-01 4.5494953163938943e-02 0.0000000000000000e+00  9.3069771400653478e-01 2.9277121627471123e-02 0.0000000000000000e+00  1.0393515930170244e-01 -2.7360598117378596e-02 0.0000000000000000e+00  2.5392622079458732e-01 5.4660945338713414e-02 0.0000000000000000e+00  4.1077390188820889e-01 -4.7768867278055521e-01 0.0000000000000000e+00  6.7703255175876020e-01 -3.5627765367533226e-01 0.0000000000000000e+00  9.4392286597688058e-01 -4.8351407671881313e-02 0.0000000000000000e+00  3.5168036309975836e-01 1.8255501030243743e-01 0.0000000000000000e+00  3.3321550705678676e-01 -1.3203633272728540e-03 0.0000000000000000e+00  2.8259517452419936e-01 -1.8932445701270931e-01 0.0000000000000000e+00  -6.4886016813241110e-01 -2.8202622020111746e-02 0.0000000000000000e+00  3.6308636714012532e-01 -1.8213908683210212e-01 0.0000000000000000e+00  -2.8469176708364657e-01 -1.4239238308669150e-01 0.0000000000000000e+00  4.0418306361189937e-01 -1.2089984059139599e-02 0.0000000000000000e+00  9.8539184407489322e-01 8.0421068883196768e-03 0.0000000000000000e+00  9.1412646034035649e-01 7.1612896175801313e-02 0.0000000000000000e+00  6.1558405241462555e-01 3.4988517747538206e-01 0.0000000000000000e+00  7.9609868643509474e-01 1.8247013036872128e-01 0.0000000000000000e+00  9.9300547390240035e-01 -1.3586849575469103