<?xml version="1.0"?>
<VTKFile type="UnstructuredGrid"  version="0.1"  >
<UnstructuredGrid>
<Piece  NumberOfPoints="406" NumberOfCells="722">
<Points>
<DataArray  type="Float64"  NumberOfComponents="3"  format="ascii">-6 -2 0  -6 2 0  6 2 0  6 -2 0  -2.8 0 0  -1.2 0 0  -5.500000000001853 -2 0  -5.000000000003705 -2 0  -4.500000000005556 -2 0  -4.000000000007409 -2 0  -3.50000000000926 -2 0  -3.000000000011112 -2 0  -2.500000000012963 -2 0  -2.000000000014814 -2 0  -1.500000000016665 -2 0  -1.000000000018516 -2 0  -0.5000000000203677 -2 0  -2.204547655537681e-11 -2 0  0.4999999999796305 -2 0  0.9999999999814779 -2 0  1.499999999983327 -2 0  1.999999999985175 -2 0  2.499999999987029 -2 0  2.999999999988882 -2 0  3.499999999990735 -2 0  3.999999999992589 -2 0  4.49999999999444 -2 0  4.999999999996293 -2 0  5.499999999998147 -2 0  6 -1.500000000001387 0  6 -1.000000000002774 0  6 -0.5000000000041616 0  6 -5.505595979116151e-12 0  6 0.4999999999958384 0  6 0.9999999999972258 0  6 1.499999999998613 0  5.500000000001853 2 0  5.000000000003705 2 0  4.500000000005556 2 0  4.000000000007409 2 0  3.50000000000926 2 0  3.000000000011112 2 0  2.500000000012963 2 0  2.000000000014814 2 0  1.500000000016665 2 0  1.000000000018516 2 0  0.5000000000203677 2 0  2.204547655537681e-11 2 0  -0.4999999999796305 2 0  -0.9999999999814779 2 0  -1.499999999983327 2 0  -1.999999999985175 2 0  -2.499999999987029 2 0  -2.999999999988882 2 0  -3.499999999990735 2 0  -3.999999999992589 2 0  -4.49999999999444 2 0  -4.999999999996293 2 0  -5.499999999998147 2 0  -6 1.500000000001387 0  -6 1.000000000002774 0  -6 0.5000000000041616 0  -6 5.505595979116151e-12 0  -6 -0.4999999999958384 0  -6 -0.9999999999972258 0  -6 -1.499999999998613 0  -2.776753453941174 -0.1914525314286965 0  -2.708364820523325 -0.3717785376335722 0  -2.598808598538216 -0.5304981265911284 0  -2.454451797386757 -0.65838709271366 0  -2.283683909636528 -0.748012994147384 0  -2.096429344207466 -0.7941670992780535 0  -1.903570655798842 -0.7941670992788195 0  -1.716316090368095 -0.7480129941491368 0  -1.545548202616307 -0.6583870927157747 0  -1.401191401463757 -0.530498126593356 0  -1.291635179477527 -0.371778537635196 0  -1.223246546059047 -0.1914525314295925 0  -1.223246546058803 0.1914525314286035 0  -1.291635179476594 0.3717785376334188 0  -1.401191401461634 0.5304981265909601 0  -1.545548202612898 0.6583870927134221 0  -1.716316090363093 0.7480129941472402 0  -1.903570655792394 0.7941670992780367 0  -2.096429344201276 0.7941670992788055 0  -2.283683909631911 0.7480129941491347 0  -2.454451797383697 0.6583870927157729 0  -2.598808598536385 0.530498126593196 0  -2.70836482052258 0.3717785376349917 0  -2.776753453940975 0.1914525314295042 0  0.4588466633941945 0.2704149791022056 0  -4.424312812173863 0.2760319703992994 0  -3.803977598762586 -0.6841584599595646 0  -0.1330968762779425 -0.6798763971615133 0  2.451109587541276 3.169800318630399e-13 0  -3.563610936250569 0.5929994091167295 0  4.204753319582647 0.2820669554523581 0  -0.4390897559348154 0.6178095532273566 0  -3.041446812595122 1.175550440315544 0  -0.9622132806516797 1.132103015222783 0  1.069493318942931 -0.773608156980569 0  -4.924330687080279 -0.7127064269610045 0  -3.024693497948964 -1.195179289656404 0  -0.9648749555625579 -1.256854520022574 0  -3.443624282349383 -0.2044158249759613 0  -0.5611500783757608 -0.1747080110423833 0  1.60270880116926 0.7487034276124258 0  3.488352576142236 -0.8228939860777884 0  4.816375011670135 -0.8163750116689444 0  3.243628045085357 0.8578172796997985 0  -4.228632884234073 1.228069101636678 0  -2.365220384435482 -1.356128547810356 0  -1.637465979486354 1.3571687267915 0  -1.642380978561139 -1.359365080147485 0  -2.362988915989869 1.356737096243695 0  -5.134120367293631 0.8356299802910161 0  2.077496878467794 -0.9514080034522553 0  4.960859291178299 0.9608592911785537 0  0.3293120056474302 1.148965409695154 0  -5.157560560414062 0.09447106214747865 0  -3.14779387667392 -0.6330563038825547 0  -3.148134455585257 0.4354299640428653 0  -0.8464439673630421 0.4159277415926296 0  -0.9918125625721008 -0.7191748422889824 0  -4.355349213295776 -1.234510499778242 0  1.582074659164868 -0.06850205959954866 0  2.400584045214166 1.204278622181321 0  5.102831660739063 0.03453404176596848 0  4.083259768981113 1.154272958349666 0  -3.992394834362243 -0.1621022234411988 0  0.4290302718942113 -1.225465289645401 0  -3.681487986394671 -1.310544246656267 0  -3.640289698916164 1.187023654838123 0  0.468851680921228 -0.447055967952278 0  3.315209904217932 0.05667935655546536 0  -2.541160649745046 -1.046980928586996 0  -1.45196684542695 1.044189935346116 0  -2.000844595891861 -1.207983108473125 0  -1.453092202970521 -1.061139264918894 0  -2.000050543938391 1.207806685704176 0  -2.548033154566413 1.04418993534851 0  4.13054585796652 -1.232871249381608 0  -0.3301617095463629 1.221692405319566 0  -0.2880491989587189 -1.359626628407983 0  -0.0758941643813178 0.132275811829787 0  2.826389221580753 -1.233168480096227 0  -2.922070412327736 0.7575752117792038 0  1.003070890178416 1.271347915034201 0  -5.319521816151902 -1.310543894393663 0  -1.070407062963812 0.7877698545098388 0  -4.562499863038985 -0.2302396981426722 0  -3.164226661545047 0.07179577787350272 0  -0.9091377812900333 0.132454654016971 0  4.116029045943655 -0.4851826871817362 0  5.316659189209927 -1.316659189208741 0  -0.9498828454673396 -0.4149758979014553 0  -4.037769805263969 0.6896174350675625 0  1.431664772855882 -1.327784137638992 0  -3.646693623568034 0.1600006358878044 0  -2.878371345483476 -0.7910345833001061 0  1.062603041385242 0.2894765870627741 0  -0.547955103783681 0.1635272504420374 0  -4.804809838419659 1.41016301576038 0  -3.042895319571192 -0.3694931303482478 0  -4.59252578392403 0.792267765362792 0  2.823271260730033 -0.5472430318427347 0  -4.28575390662405 -0.7521491832384866 0  -0.5524005545121191 -0.9037367558558163 0  1.815219025072439 1.388812135783969 0  -1.288398729718543 -0.8178399475601057 0  -5.424388493366639 1.35375165044146 0  -2.256991952837567 -1.049538527273222 0  -1.739586738723494 -1.052327527873255 0  -1.738827359988536 1.050180627239116 0  -2.257795730428802 1.049701225145305 0  -0.62222340523776 -0.5483611729237363 0  2.065188519029698 0.5424877383589943 0  0.1055865106318892 0.7347782870471022 0  1.013082573993895 -0.2061877611231605 0  -5.428323520618333 -0.4386412085227075 0  5.374041502384443 -0.5304401760993408 0  3.435185060219232 -1.377658617395091 0  -3.302377238490527 0.8841390072780534 0  -0.9902123298072768 -0.124175295282554 0  0.7186958547669859 0.8724503317343631 0  2.941237214953417 1.390391532351976 0  4.708037787864423 -1.340276032051348 0  5.395029680982659 1.395029680983341 0  3.591022587550188 1.348260650408605 0  2.759385971589342 0.4857447325740718 0  -0.6832705231418494 0.8879387563573758 0  5.437781298507145 0.5981501503262471 0  -2.698603003287285 1.617130043745112 0  -3.463358189947519 -1.013588318179017 0  1.710866040171871 -0.6978716337870808 0  3.642182982762737 0.4555704362064124 0  -2.699802128031161 -1.618310703146212 0  -1.3020054856637 1.619819977935582 0  -2.000000000004996 -1.566396763829867 0  -1.999999999994794 1.566396763830688 0  -1.247812462071684 -1.595232739507426 0  4.59429106759859 1.420052135572917 0  0.9448382581152466 -1.440259145469251 0  -0.116376100998861 -0.2606209011258676 0  -4.774521510507792 0.4245390872783272 0  -2.983910172370106 -0.1208000607277856 0  -3.353983741142061 1.576062863985777 0  -5.473352579109997 0.4917619255280954 0  -4.828650470275986 -1.493148538517745 0  4.639973657165532 -0.2833178611094909 0  -2.660279445404468 0.7699932347178977 0  -1.335045190775955 0.7744876666923373 0  -3.395669172689978 0.2584951122361346 0  2.279110606119369 -1.465899541383697 0  4.734317729212562 0.4520963557364723 0  -0.6334913028224612 1.584213953723378 0  2.121854101359879 -0.4289611127787379 0  -3.474459720833238 -0.4977581316675216 0  -1.066539898844178 0.3411379476537602 0  -3.361849707555382 -1.611428512420182 0  -4.099039818938317 0.3306400369415774 0  -2.935324777364672 0.354721898811665 0  -3.973578595052027 1.482940358734671 0  3.784450148635689 -0.0702780807301525 0  -1.191348122671212 -0.5614501189722798 0  -2.838672605956353 -0.5493179047027598 0  -1.184983441257359 0.5617520886612424 0  -2.811184099847449 0.5574240755049175 0  0.2702752249355158 -0.8003643570420809 0  -0.6945947797857237 -1.593893965175195 0  0.001175881878679056 1.504521009023778 0  0.6072931735145096 1.501814722697789 0  -3.991896293645949 -1.047264188412552 0  -3.734097395159253 -0.3261671578666079 0  -5.539652387691843 -0.8857154182585802 0  -4.395061924111849 1.563293728588296 0  0.2258327611651416 -0.08745142624872881 0  -3.774816634825771 0.8676973328379478 0  2.208484493569073 1.6256686312487 0  0.1309939514660535 -1.566169703482512 0  -5.551414360955331 0.9459842275970113 0  -4.04734138658365 -1.51163984963472 0  -4.947145019546805 -0.3299925153029702 0  4.320410447198621 0.6970857582435144 0  -4.707557346727139 -1.000565649857444 0  1.353711468973986 1.582551234446199 0  1.674156483558973 0.3266252271732694 0  -4.039105552973997 -0.4537604746027087 0  0.01051727619263377 -1.088858357362194 0  -0.2234942609176301 0.8619127912343982 0  -2.95903482691863 0.1219373374385197 0  -4.682467695920681 0.0804575682243254 0  5.535750224195656 -0.1525732643419722 0  -4.290083947414376 -0.0005258314026840717 0  1.136102562417988 0.7655312464039168 0  -2.816589394567214 0.9927597419785312 0  -2.645374456162409 -0.7645902451387543 0  4.18414576655837 1.624276131878667 0  0.7127337088822223 -0.9006358935856398 0  1.972418102153911 0.9727040774616764 0  -2.42199174813501 0.8591219219254587 0  -2.418604734200992 -0.8552987735117754 0  -5.573597213364169 -0.03612430678117123 0  2.024792870869397 0.05574071630590883 0  -1.578875191508968 0.861424470724936 0  -1.54706008231699 -0.8630049102346303 0  3.848662181064435 -1.569601980075533 0  -2.000000000003871 -0.9746445732264465 0  -1.99999999
[...]
<PointData  Vectors="f_22"> 
<DataArray  type="Float64"  Name="f_22"  NumberOfComponents="3" format="ascii">0.0000000000000000e+00 0.0000000000000000e+00 0.0000000000000000e+00  0.0000000000000000e+00 0.0000000000000000e+00 0.0000000000000000e+00  0.0000000000000000e+00 0.0000000000000000e+00 0.0000000000000000e+00  0.0000000000000000e+00 0.0000000000000000e+00 0.0000000000000000e+00  9.9999995780435780e-01 0.0000000000000000e+00 0.0000000000000000e+00  9.9999995780435780e-01 0.0000000000000000e+00 0.0000000000000000e+00  0.0000000000000000e+00 0.0000000000000000e+00 0.0000000000000000e+00  0.0000000000000000e+00 0.0000000000000000e+00 0.0000000000000000e+00  0.0000000000000000e+00 0.0000000000000000e+00 0.0000000000000000e+00  0.0000000000000000e+00 0.0000000000000000e+00 0.0000000000000000e+00  0.0000000000000000e+00 0.0000000000000000e+00 0.0000000000000000e+00  0.0000000000000000e+00 0.0000000000000000e+00 0.0000000000000000e+00  0.0000000000000000e+00 0.0000000000000000e+00 0.0000000000000000e+00  0.0000000000000000e+00 0.0000000000000000e+00 0.0000000000000000e+00  0.0000000000000000e+00 0.0000000000000000e+00 0.0000000000000000e+00  0.0000000000000000e+00 0.0000000000000000e+00 0.0000000000000000e+00  0.0000000000000000e+00 0.0000000000000000e+00 0.0000000000000000e+00  0.0000000000000000e+00 0.0000000000000000e+00 0.0000000000000000e+00  0.0000000000000000e+00 0.0000000000000000e+00 0.0000000000000000e+00  0.0000000000000000e+00 0.0000000000000000e+00 0.0000000000000000e+00  0.0000000000000000e+00 0.0000000000000000e+00 0.0000000000000000e+00  0.0000000000000000e+00 0.0000000000000000e+00 0.0000000000000000e+00  0.0000000000000000e+00 0.0000000000000000e+00 0.0000000000000000e+00  0.0000000000000000e+00 0.0000000000000000e+00 0.0000000000000000e+00  0.0000000000000000e+00 0.0000000000000000e+00 0.0000000000000000e+00  0.0000000000000000e+00 0.0000000000000000e+00 0.0000000000000000e+00  0.0000000000000000e+00 0.0000000000000000e+00 0.0000000000000000e+00  0.0000000000000000e+00 0.0000000000000000e+00 0.0000000000000000e+00  0.0000000000000000e+00 0.0000000000000000e+00 0.0000000000000000e+00  3.3258970799408694e-01 -3.3498034803565918e-04 0.0000000000000000e+00  5.8609735264522866e-01 -5.8761771383556707e-04 0.0000000000000000e+00  7.3536113922758539e-01 -5.2391692276152857e-04 0.0000000000000000e+00  7.8483597779863734e-01 -2.3494526081729550e-05 0.0000000000000000e+00  7.3531193175174037e-01 4.7388293169645009e-04 0.0000000000000000e+00  5.8605422440095811e-01 5.8919181071168710e-04 0.0000000000000000e+00  3.3262659840561370e-01 2.9013592826983802e-04 0.0000000000000000e+00  0.0000000000000000e+00 0.0000000000000000e+00 0.0000000000000000e+00  0.0000000000000000e+00 0.0000000000000000e+00 0.0000000000000000e+00  0.0000000000000000e+00 0.0000000000000000e+00 0.0000000000000000e+00  0.0000000000000000e+00 0.0000000000000000e+00 0.0000000000000000e+00  0.0000000000000000e+00 0.0000000000000000e+00 0.0000000000000000e+00  0.0000000000000000e+00 0.0000000000000000e+00 0.0000000000000000e+00  0.0000000000000000e+00 0.0000000000000000e+00 0.0000000000000000e+00  0.0000000000000000e+00 0.0000000000000000e+00 0.0000000000000000e+00  0.0000000000000000e+00 0.0000000000000000e+00 0.0000000000000000e+00  0.0000000000000000e+00 0.0000000000000000e+00 0.0000000000000000e+00  0.0000000000000000e+00 0.0000000000000000e+00 0.0000000000000000e+00  0.0000000000000000e+00 0.0000000000000000e+00 0.0000000000000000e+00  0.0000000000000000e+00 0.0000000000000000e+00 0.0000000000000000e+00  0.0000000000000000e+00 0.0000000000000000e+00 0.0000000000000000e+00  0.0000000000000000e+00 0.0000000000000000e+00 0.0000000000000000e+00  0.0000000000000000e+00 0.0000000000000000e+00 0.0000000000000000e+00  0.0000000000000000e+00 0.0000000000000000e+00 0.0000000000000000e+00  0.0000000000000000e+00 0.0000000000000000e+00 0.0000000000000000e+00  0.0000000000000000e+00 0.0000000000000000e+00 0.0000000000000000e+00  0.0000000000000000e+00 0.0000000000000000e+00 0.0000000000000000e+00  0.0000000000000000e+00 0.0000000000000000e+00 0.0000000000000000e+00  0.0000000000000000e+00 0.0000000000000000e+00 0.0000000000000000e+00  0.0000000000000000e+00 0.0000000000000000e+00 0.0000000000000000e+00  3.3135159101281864e-01 -6.0093531539566155e-04 0.0000000000000000e+00  5.8553279167586503e-01 -1.0117403163222554e-03 0.0000000000000000e+00  7.3607852793350192e-01 -8.1344883591826466e-04 0.0000000000000000e+00  7.8655937809571286e-01 -8.8140892260421082e-06 0.0000000000000000e+00  7.3676347946264387e-01 9.3462785694756092e-04 0.0000000000000000e+00  5.8584802432841809e-01 1.0765484848027764e-03 0.0000000000000000e+00  3.3136727975730229e-01 6.4793792309273052e-04 0.0000000000000000e+00  9.9999995780435780e-01 0.0000000000000000e+00 0.0000000000000000e+00  9.9999995780435780e-01 0.0000000000000000e+00 0.0000000000000000e+00  9.9999995780435780e-01 0.0000000000000000e+00 0.0000000000000000e+00  9.9999995780435780e-01 0.0000000000000000e+00 0.0000000000000000e+00  9.9999995780435780e-01 0.0000000000000000e+00 0.0000000000000000e+00  9.9999995780435780e-01 0.0000000000000000e+00 0.0000000000000000e+00  9.9999995780435780e-01 0.0000000000000000e+00 0.0000000000000000e+00  9.9999995780435780e-01 0.0000000000000000e+00 0.0000000000000000e+00  9.9999995780435780e-01 0.0000000000000000e+00 0.0000000000000000e+00  9.9999995780435780e-01 0.0000000000000000e+00 0.0000000000000000e+00  9.9999995780435780e-01 0.0000000000000000e+00 0.0000000000000000e+00  9.9999995780435780e-01 0.0000000000000000e+00 0.0000000000000000e+00  9.9999995780435780e-01 0.0000000000000000e+00 0.0000000000000000e+00  9.9999995780435780e-01 0.0000000000000000e+00 0.0000000000000000e+00  9.9999995780435780e-01 0.0000000000000000e+00 0.0000000000000000e+00  9.9999995780435780e-01 0.0000000000000000e+00 0.0000000000000000e+00  9.9999995780435780e-01 0.0000000000000000e+00 0.0000000000000000e+00  9.9999995780435780e-01 0.0000000000000000e+00 0.0000000000000000e+00  9.9999995780435780e-01 0.0000000000000000e+00 0.0000000000000000e+00  9.9999995780435780e-01 0.0000000000000000e+00 0.0000000000000000e+00  9.9999995780435780e-01 0.0000000000000000e+00 0.0000000000000000e+00  9.9999995780435780e-01 0.0000000000000000e+00 0.0000000000000000e+00  9.9999995780435780e-01 0.0000000000000000e+00 0.0000000000000000e+00  9.9999995780435780e-01 0.0000000000000000e+00 0.0000000000000000e+00  8.5195996846925859e-01 1.6794737873217998e-02 0.0000000000000000e+00  7.8087652589620415e-01 -5.8266316796181548e-03 0.0000000000000000e+00  7.0281949810187971e-01 3.4531396088120662e-02 0.0000000000000000e+00  7.4538415864016028e-01 -5.2961161037422967e-02 0.0000000000000000e+00  8.0406869954609383e-01 1.7079613423101872e-05 0.0000000000000000e+00  7.3992698499061282e-01 -5.0461179807974939e-02 0.0000000000000000e+00  7.7231804245867519e-01 1.0676502747579443e-03 0.0000000000000000e+00  7.9897596300862739e-01 6.0400466954325577e-02 0.0000000000000000e+00  4.2963542980412445e-01 -9.8709169642554564e-02 0.0000000000000000e+00  4.1779929612438943e-01 1.0022436211429932e-01 0.0000000000000000e+00  6.6988276387616230e-01 -2.5149659796983592e-02 0.0000000000000000e+00  6.8586289647387344e-01 4.6404239627450636e-03 0.0000000000000000e+00  4.1518172346076887e-01 9.8117078160874033e-02 0.0000000000000000e+00  3.0472174285255349e-01 -8.7151302518411800e-02 0.0000000000000000e+00  8.4474558779532960e-01 2.7375381149011026e-02 0.0000000000000000e+00  9.4862934269669275e-01 -1.6724391585443331e-02 0.0000000000000000e+00  6.7687815565509535e-01 1.6225984273357877e-02 0.0000000000000000e+00  6.4994434563598802e-01 -3.4284034293577373e-03 0.0000000000000000e+00  6.5260198673898251e-01 -1.2150338284695676e-03 0.0000000000000000e+00  6.3750504137704622e-01 4.1581385463182862e-03 0.0000000000000000e+00  4.7323915039402747e-01 -1.2937259674156831e-02 0.0000000000000000e+00  1.7085090702048542e-01 1.0265727011772631e-01 0.0000000000000000e+00  1.2645060685422915e-01 2.8816819780314262e-02 0.0000000000000000e+00  1.2429553907141065e-01 -2.7660958958197944e-02 0.0000000000000000e+00  1.6993141672458423e-01 -1.0244700410358826e-01 0.0000000000000000e+00  6.4643501011759363e-01 -3.1649553824238293e-03 0.0000000000000000e+00  5.9783115600771664e-01 -1.0519985976029288e-02 0.0000000000000000e+00  6.0108577170293975e-01 1.0297285338468029e-03 0.0000000000000000e+00  4.6933692972603358e-01 3.9968243457333484e-02 0.0000000000000000e+00  7.8696196649543682e-01 -4.2248299796336474e-04 0.0000000000000000e+00  7.4479223626434876e-01 1.0885763663195600e-01 0.0000000000000000e+00  8.2941527235511692e-01 -8.9057772714850589e-02 0.0000000000000000e+00  9.3253803955989467e-01 4.2287847936090091e-02 0.0000000000000000e+00  7.9814284644189004e-01 -8.6633166731278785e-02 0.0000000000000000e+00  4.7225953913420143e-01 1.0348084026880961e-02 0.0000000000000000e+00  8.2288689427631068e-01 -2.1577035438672711e-03 0.0000000000000000e+00  4.8420348160132531e-01 6.1569562337561610e-03 0.0000000000000000e+00  7.8587342859740483e-01 5.2717722402230060e-05 0.0000000000000000e+00  5.1703712893199549e-01 1.6386443647532975e-03 0.0000000000000000e+00  8.0600511284829046e-01 7.9808968842461723e-03 0.0000000000000000e+00  4.2778557475236162e-01 -3.3800767653063793e-02 0.0000000000000000e+00  4.1070865046334520e-01 2.9016549500195599e-02 0.0000000000000000e+00  4.7659893304209494e-01 -3.7063033750810284e-02 0.0000000000000000e+00  8.0778180967190716e-01 -2.6468645000234065e-02 0.0000000000000000e+00  7.9324179008477447e-01 4.6850386309182392e-04 0.0000000000000000e+00  4.2474072577847605e-01 1.7835561712108444e-01 0.0000000000000000e+00  4.7892113537037789e-01 9.3540988392580141e-02 0.0000000000000000e+00  2.3152484244048102e-01 5.2270798318370296e-02 0.0000000000000000e+00  4.5763963316051259e-01 -9.2300597574043353e-02 0.0000000000000000e+00  2.3164890495106741e-01 -5.2014845631966816e-02 0.0000000000000000e+00  4.2858317683264163e-01 -1.7849526804312987e-01 0.0000000000000000e+00  4.7882350337103879e-01 -1.4058908713433025e-03 0.0000000000000000e+00  3.9024201697872457e-01 6.2943023191925643e-02 0.0000000000000000e+00  2.9858189332460461e-01 -4.9761595224133322e-02 0.0000000000000000e+00  9.0940643353759976e-01 1.0628868259956981e-02 0.0000000000000000e+00  4.7310321177271686e-01 -4.1324569649135367e-03 0.0000000000000000e+00  6.8111606001849356e-01 -1.5949619675666962e-01 0.0000000000000000e+00  4.2301334688603620e-01 1.9393504855981548e-02 0.0000000000000000e+00  4.3911194700214923e-01 1.6305516451207572e-03 0.0000000000000000e+00  7.5257137112822148e-01 9.5597121294824561e-02 0.0000000000000000e+00  7.8365979883762305e-01 3.8516314322221525e-03 0.0000000000000000e+00  9.0730363194206487e-01 -1.6299393140401922e-02 0.0000000000000000e+00  9.8523143869543295e-01 9.6614022667771884e-03 0.0000000000000000e+00  7.4049483590490883e-01 -1.7498926123759857e-03 0.0000000000000000e+00  4.3731967672206801e-01 -5.3989532235120040e-04 0.0000000000000000e+00  9.4739354945486975e-01 -3.8639915432670403e-02 0.0000000000000000e+00  6.9759492142660628e-01 -2.2671547720908892e-02 0.0000000000000000e+00  4.0376316127479378e-01 -1.1757130437752108e-02 0.0000000000000000e+00  8.2901437530209843e-01 -1.4637722766067221e-02 0.0000000000000000e+00  6.5815619867238417e-01 1.6799572918102579e-01 0.0000000000000000e+00  8.1846954470723632e-01 1.2977051168799134e-02 0.0000000000000000e+00  9.4874101944745892e-01 1.5560789290377420e-02 0.0000000000000000e+00  3.8093079541588620e-01 -3.3549833182778669e-03 0.0000000000000000e+00  8.7121230273489814e-01 9.3683524109591340e-02 0.0000000000000000e+00  6.6141981265799932e-01 -8.5987703366538614e-03 0.0000000000000000e+00  7.3150046738453811e-01 -5.2809683226030428e-03 0.0000000000000000e+00  6.7572069646121224e-01 1.5026423281948937e-02 0.0000000000000000e+00  6.2250465115050624e-01 -8.2994330027217400e-02 0.0000000000000000e+00  3.7761720278441163e-01 7.2145763054851280e-03 0.0000000000000000e+00  7.5432266627218525e-01 -9.4125295827082817e-02 0.0000000000000000e+00  4.1566826686455277e-01 -1.2511728638257369e-03 0.0000000000000000e+00  3.9402591334962656e-01 1.3333604180681782e-01 0.0000000000000000e+00  4.4243012507230506e-01 -4.0115543724943352e-02 0.0000000000000000e+00  4.4564286118295526e-01 4.0540470325871825e-02 0.0000000000000000e+00  3.9375924558715314e-01 -1.3357059942759120e-01 0.0000000000000000e+00  8.5161035410111674e-01 -5.9447110798935492e-02 0.0000000000000000e+00  7.3832666045004347e-01 9.7039762926667914e-03 0.0000000000000000e+00  7.0602738542764187e-01 4.7384441276600978e-02 0.0000000000000000e+00  8.3342963416569515e-01 -9.8132347320130254e-03 0.0000000000000000e+00  7.4877474986466719e-01 1.3057705099642504e-03 0.0000000000000000e+00  7.2951152866759117e-01 -7.2734696923339290e-04 0.0000000000000000e+00  3.9958211459490839e-01 -1.8354750987632665e-03 0.0000000000000000e+00  6.1935905126780255e-01 -8.4755127503238645e-02 0.0000000000000000e+00  9.9135502567654210e-01 -7.1221345271875805e-03 0.0000000000000000e+00  6.2652499222886793e-01 3.3188907997037220e-02 0.0000000000000000e+00  3.8941517968364131e-01 2.6693509820166269e-03 0.0000000000000000e+00  4.2398558681792198e-01 -6.8876068695365820e-04 0.0000000000000000e+00  3.9423973993923228e-01 4.6970972826244586e-04 0.0000000000000000e+00  4.1639048919834676e-01 1.7079475223736329e-03 0.0000000000000000e+00  7.4602454875335100e-01 5.2532280610697616e-03 0.0000000000000000e+00  6.3868796628158797e-01 9.0352240856808680e-02 0.0000000000000000e+00  7.1420563922980684e-01 7.2118496373254628e-04 0.0000000000000000e+00  1.1334198125441965e-01 -4.4016514272820897e-02 0.0000000000000000e+00  5.5870821974100948e-01 6.0446424016258785e-02 0.0000000000000000e+00  6.9451096444334626e-01 -1.4626445855863205e-02 0.0000000000000000e+00  7.4767229123981749e-01 2.4550579540694836e-03 0.0000000000000000e+00  1.1305512469989928e-01 4.3724180302000690e-02 0.0000000000000000e+00  1.1101162354354679e-02 2.9213246388028035e-02 0.0000000000000000e+00  5.5845613877038664e-03 2.8839023455385606e-02 0.0000000000000000e+00  5.5509501070666071e-03 -2.8803640339066888e-02 0.0000000000000000e+00  2.9839278340334417e-02 -3.4079654839559860e-02 0.0000000000000000e+00  3.7864927855757213e-01 5.9478962283811482e-04 0.0000000000000000e+00  3.2511451041086159e-01 -1.4083924257220713e-02 0.0000000000000000e+00  8.9405861666622832e-01 -2.1331777556018235e-02 0.0000000000000000e+00  7.5413679775747033e-01 -4.4279177442790429e-03 0.0000000000000000e+00  9.4768217860589288e-01 3.4306041708688173e-02 0.0000000000000000e+00  2.3023742996850161e-01 -2.3672470826223868e-02 0.0000000000000000e+00  7.3838695527114639e-01 -1.2061507129116579e-03 0.0000000000000000e+00  3.3261750251778671e-01 2.5789189207772174e-03 0.0000000000000000e+00  7.7094521814171468e-01 -7.7137209355573433e-04 0.0000000000000000e+00  6.7683102513287097e-01 -1.9160383957444119e-01 0.0000000000000000e+00  8.0969394846695342e-01 8.2285529272104960e-02 0.0000000000000000e+00  8.4189705927118763e-01 -3.7029143671261214e-02 0.0000000000000000e+00  3.4000927204164849e-01 -3.7706442303928550e-03 0.0000000000000000e+00  7.4564164696731172e-01 1.0386127688822592e-03 0.0000000000000000e+00  1.2235036049068973e-01 3.4640134171057969e-02 0.0000000000000000e+00  7.6451699709746157e-01 -7.9757071706152913e-03 0.0000000000000000e+00  7.7538809088968841e-01 5.3841310067881766e-02 0.0000000000000000e+00  9.7894525345308048e-01 2.1751565940816429e-02 0.0000000000000000e+00  2.1007271750191941e-01 2.0112054346419776e-02 0.0000000000000000e+00  7.8149537544470815e-01 -1.2421588080086206e-02 0.0000000000000000e+00  9.0079423448495410e-01 -9.9978385115533447e-02 0.0000000000000000e+00  3.2297485504177420e-01 -1.2057881335406426e-02 0.0000000000000000e+00  7.8971131599781874e-01 -3.9992178064543108e-04 0.0000000000000000e+00  9.3636122872735461e-01 -4.6263815635198137e-02 0.0000000000000000e+00  8.2228827046871000e-01 1.5236565566779514e-01 0.0000000000000000e+00  9.3487354498245012e-01 4.7241113755162212e-02 0.0000000000000000e+00  8.2337200504479913e-01 -1.5626361927302090e-01 0.0000000000000000e+00  6.6730330507667657e-01 -4.4334584094567142e-02 0.0000000000000000e+00  1.0829217137538932e-01 -3.5092795865613431e-02 0.0000000000000000e+00  2.3392752069122938e-01 2.7966578206718301e-02 0.0000000000000000e+00  2.7441035605541375e-01 1.6339994961390342e-02 0.0000000000000000e+00  5.5755384840680411e-01 2.3464590267316867e-02 0.0000000000000000e+00  7.9930692853550045e-01 2.4286522326898888e-02 0.0000000000000000e+00  6.2927262349666124e-01 1.5413624487776282e-03 0.0000000000000000e+00  2.8403852948498848e-01 -4.3038057886624495e-03 0.0000000000000000e+00  8.9055507714220761e-01 -6.0833578410069587e-03 0.0000000000000000e+00  6.3353622296722345e-01 -3.7523240947637003e-02 0.0000000000000000e+00  2.4151339139885716e-01 2.2514867469289749e-03 0.0000000000000000e+00  2.0837063860343757e-01 -2.0253604970555960e-02 0.0000000000000000e+00  6.0667887242859897e-01 -1.4739357056279107e-03 0.0000000000000000e+00  3.0793901679297087e-01 9.7694435641914913e-03 0.0000000000000000e+00  7.6785236807495683e-01 2.5818607678972693e-03 0.0000000000000000e+00  6.8910287652356683e-01 1.7587410555107476e-03 0.0000000000000000e+00  5.8410183936305138e-01 6.8807090767705314e-03 0.0000000000000000e+00  2.5398696126408454e-01 5.9494397272514361e-03 0.0000000000000000e+00  7.9239029884090084e-01 9.1252010347849868e-03 0.0000000000000000e+00  7.6086276652662921e-01 1.8029549619610140e-02 0.0000000000000000e+00  4.9665759442113461e-01 -5.3278814034700882e-02 0.0000000000000000e+00  6.4269525750338996e-01 6.4602799721600157e-02 0.0000000000000000e+00  9.5494424714141490e-01 -3.5166813793596555e-02 0.0000000000000000e+00  7.9162764618015546e-01 -9.5217130420109511e-04 0.0000000000000000e+00  7.8072462094669615e-01 -2.4699361898754236e-04 0.0000000000000000e+00  8.0109189398466429e-01 2.7808841737053789e-05 0.0000000000000000e+00  6.7271543990303173e-01 2.3897897967682418e-02 0.0000000000000000e+00  5.1327216975101730e-01 -1.6135959902743557e-01 0.0000000000000000e+00  6.8341459798982473e-01 1.9001704890801960e-01 0.0000000000000000e+00  2.5242541043211542e-01 4.6746946457135782e-04 0.0000000000000000e+00  6.1269022079066271e-01 -3.3458727232751805e-02 0.0000000000000000e+00  5.8814625106606622e-01 1.1331480795272139e-02 0.0000000000000000e+00  6.1848234552652048e-01 -1.6321204250473043e-01 0.0000000000000000e+00  6.2488779793853610e-01 1.6061457989716432e-01 0.0000000000000000e+00  7.8671256843556425e-01 6.2026209447572613e-05 0.0000000000000000e+00  8.1143500971180371e-01 1.2619421838367688e-03 0.0000000000000000e+00  7.4782399890148588e-01 6.9829302808758223e-02 0.0000000000000000e+00  7.3951885421608610e-01 -7.4975009445142946e-02 0.0000000000000000e+00  2.8637032698318671e-01 -6.9747090235498647e-04 0.0000000000000000e+00  5.3557996215722370e-01 3.2294806903471585e-02 0.0000000000000000e+00  5.3556935919297310e-01 -3.2323494593437994e-02 0.0000000000000000e+00  3.1137541728658030e-01 -1.1508148491840378e-01 0.0000000000000000e+00  6.0828528572350937e-01 2.8859631895452784e-03 0.0000000000000000e+00  5.4296614863141957e-01 1.0927553575733329e-01 0.0000000000000000e+00  8.6424175324081287e-01 -2.2318663419369873e-03 0.0000000000000000e+00  5.9119702850670097e-01 6.7496180489038965e-04 0.0000000000000000e+00  6.1240064657609938e-01 -7.0986967488801452e-04 0.0000000000000000e+00  5.9028901018511182e-01 5.5183685345255680e-03 0.0000000000000000e+00  2.4071709276036035e-01 8.0631832325358740e-02 0.0000000000000000e+00  5.1086626795562695e-01 -1.0909849996593086e-01 0.0000000000000000e+00  6.3432829175615346e-01 -7.4694006197544563e-03 0.0000000000000000e+00  6.4252090489319891e-01 -1.6817351948440540e-03 0.0000000000000000e+00  2.5343231361014196e-01 -3.4990693519817810e-04 0.0000000000000000e+00  2.4524059719558061e-01 -3.6866143499177132e-03 0.0000000000000000e+00  8.1569614533768309e-01 -3.3662036633810656e-02 0.