<?xml version="1.0"?>
<VTKFile type="UnstructuredGrid"  version="0.1"  >
<UnstructuredGrid>
<Piece  NumberOfPoints="406" NumberOfCells="722">
<Points>
<DataArray  type="Float64"  NumberOfComponents="3"  format="ascii">-6 -2 0  -6 2 0  6 2 0  6 -2 0  -2.8 0 0  -1.2 0 0  -5.500000000001853 -2 0  -5.000000000003705 -2 0  -4.500000000005556 -2 0  -4.000000000007409 -2 0  -3.50000000000926 -2 0  -3.000000000011112 -2 0  -2.500000000012963 -2 0  -2.000000000014814 -2 0  -1.500000000016665 -2 0  -1.000000000018516 -2 0  -0.5000000000203677 -2 0  -2.204547655537681e-11 -2 0  0.4999999999796305 -2 0  0.9999999999814779 -2 0  1.499999999983327 -2 0  1.999999999985175 -2 0  2.499999999987029 -2 0  2.999999999988882 -2 0  3.499999999990735 -2 0  3.999999999992589 -2 0  4.49999999999444 -2 0  4.999999999996293 -2 0  5.499999999998147 -2 0  6 -1.500000000001387 0  6 -1.000000000002774 0  6 -0.5000000000041616 0  6 -5.505595979116151e-12 0  6 0.4999999999958384 0  6 0.9999999999972258 0  6 1.499999999998613 0  5.500000000001853 2 0  5.000000000003705 2 0  4.500000000005556 2 0  4.000000000007409 2 0  3.50000000000926 2 0  3.000000000011112 2 0  2.500000000012963 2 0  2.000000000014814 2 0  1.500000000016665 2 0  1.000000000018516 2 0  0.5000000000203677 2 0  2.204547655537681e-11 2 0  -0.4999999999796305 2 0  -0.9999999999814779 2 0  -1.499999999983327 2 0  -1.999999999985175 2 0  -2.499999999987029 2 0  -2.999999999988882 2 0  -3.499999999990735 2 0  -3.999999999992589 2 0  -4.49999999999444 2 0  -4.999999999996293 2 0  -5.499999999998147 2 0  -6 1.500000000001387 0  -6 1.000000000002774 0  -6 0.5000000000041616 0  -6 5.505595979116151e-12 0  -6 -0.4999999999958384 0  -6 -0.9999999999972258 0  -6 -1.499999999998613 0  -2.776753453941174 -0.1914525314286965 0  -2.708364820523325 -0.3717785376335722 0  -2.598808598538216 -0.5304981265911284 0  -2.454451797386757 -0.65838709271366 0  -2.283683909636528 -0.748012994147384 0  -2.096429344207466 -0.7941670992780535 0  -1.903570655798842 -0.7941670992788195 0  -1.716316090368095 -0.7480129941491368 0  -1.545548202616307 -0.6583870927157747 0  -1.401191401463757 -0.530498126593356 0  -1.291635179477527 -0.371778537635196 0  -1.223246546059047 -0.1914525314295925 0  -1.223246546058803 0.1914525314286035 0  -1.291635179476594 0.3717785376334188 0  -1.401191401461634 0.5304981265909601 0  -1.545548202612898 0.6583870927134221 0  -1.716316090363093 0.7480129941472402 0  -1.903570655792394 0.7941670992780367 0  -2.096429344201276 0.7941670992788055 0  -2.283683909631911 0.7480129941491347 0  -2.454451797383697 0.6583870927157729 0  -2.598808598536385 0.530498126593196 0  -2.70836482052258 0.3717785376349917 0  -2.776753453940975 0.1914525314295042 0  0.4588466633941945 0.2704149791022056 0  -4.424312812173863 0.2760319703992994 0  -3.803977598762586 -0.6841584599595646 0  -0.1330968762779425 -0.6798763971615133 0  2.451109587541276 3.169800318630399e-13 0  -3.563610936250569 0.5929994091167295 0  4.204753319582647 0.2820669554523581 0  -0.4390897559348154 0.6178095532273566 0  -3.041446812595122 1.175550440315544 0  -0.9622132806516797 1.132103015222783 0  1.069493318942931 -0.773608156980569 0  -4.924330687080279 -0.7127064269610045 0  -3.024693497948964 -1.195179289656404 0  -0.9648749555625579 -1.256854520022574 0  -3.443624282349383 -0.2044158249759613 0  -0.5611500783757608 -0.1747080110423833 0  1.60270880116926 0.7487034276124258 0  3.488352576142236 -0.8228939860777884 0  4.816375011670135 -0.8163750116689444 0  3.243628045085357 0.8578172796997985 0  -4.228632884234073 1.228069101636678 0  -2.365220384435482 -1.356128547810356 0  -1.637465979486354 1.3571687267915 0  -1.642380978561139 -1.359365080147485 0  -2.362988915989869 1.356737096243695 0  -5.134120367293631 0.8356299802910161 0  2.077496878467794 -0.9514080034522553 0  4.960859291178299 0.9608592911785537 0  0.3293120056474302 1.148965409695154 0  -5.157560560414062 0.09447106214747865 0  -3.14779387667392 -0.6330563038825547 0  -3.148134455585257 0.4354299640428653 0  -0.8464439673630421 0.4159277415926296 0  -0.9918125625721008 -0.7191748422889824 0  -4.355349213295776 -1.234510499778242 0  1.582074659164868 -0.06850205959954866 0  2.400584045214166 1.204278622181321 0  5.102831660739063 0.03453404176596848 0  4.083259768981113 1.154272958349666 0  -3.992394834362243 -0.1621022234411988 0  0.4290302718942113 -1.225465289645401 0  -3.681487986394671 -1.310544246656267 0  -3.640289698916164 1.187023654838123 0  0.468851680921228 -0.447055967952278 0  3.315209904217932 0.05667935655546536 0  -2.541160649745046 -1.046980928586996 0  -1.45196684542695 1.044189935346116 0  -2.000844595891861 -1.207983108473125 0  -1.453092202970521 -1.061139264918894 0  -2.000050543938391 1.207806685704176 0  -2.548033154566413 1.04418993534851 0  4.13054585796652 -1.232871249381608 0  -0.3301617095463629 1.221692405319566 0  -0.2880491989587189 -1.359626628407983 0  -0.0758941643813178 0.132275811829787 0  2.826389221580753 -1.233168480096227 0  -2.922070412327736 0.7575752117792038 0  1.003070890178416 1.271347915034201 0  -5.319521816151902 -1.310543894393663 0  -1.070407062963812 0.7877698545098388 0  -4.562499863038985 -0.2302396981426722 0  -3.164226661545047 0.07179577787350272 0  -0.9091377812900333 0.132454654016971 0  4.116029045943655 -0.4851826871817362 0  5.316659189209927 -1.316659189208741 0  -0.9498828454673396 -0.4149758979014553 0  -4.037769805263969 0.6896174350675625 0  1.431664772855882 -1.327784137638992 0  -3.646693623568034 0.1600006358878044 0  -2.878371345483476 -0.7910345833001061 0  1.062603041385242 0.2894765870627741 0  -0.547955103783681 0.1635272504420374 0  -4.804809838419659 1.41016301576038 0  -3.042895319571192 -0.3694931303482478 0  -4.59252578392403 0.792267765362792 0  2.823271260730033 -0.5472430318427347 0  -4.28575390662405 -0.7521491832384866 0  -0.5524005545121191 -0.9037367558558163 0  1.815219025072439 1.388812135783969 0  -1.288398729718543 -0.8178399475601057 0  -5.424388493366639 1.35375165044146 0  -2.256991952837567 -1.049538527273222 0  -1.739586738723494 -1.052327527873255 0  -1.738827359988536 1.050180627239116 0  -2.257795730428802 1.049701225145305 0  -0.62222340523776 -0.5483611729237363 0  2.065188519029698 0.5424877383589943 0  0.1055865106318892 0.7347782870471022 0  1.013082573993895 -0.2061877611231605 0  -5.428323520618333 -0.4386412085227075 0  5.374041502384443 -0.5304401760993408 0  3.435185060219232 -1.377658617395091 0  -3.302377238490527 0.8841390072780534 0  -0.9902123298072768 -0.124175295282554 0  0.7186958547669859 0.8724503317343631 0  2.941237214953417 1.390391532351976 0  4.708037787864423 -1.340276032051348 0  5.395029680982659 1.395029680983341 0  3.591022587550188 1.348260650408605 0  2.759385971589342 0.4857447325740718 0  -0.6832705231418494 0.8879387563573758 0  5.437781298507145 0.5981501503262471 0  -2.698603003287285 1.617130043745112 0  -3.463358189947519 -1.013588318179017 0  1.710866040171871 -0.6978716337870808 0  3.642182982762737 0.4555704362064124 0  -2.699802128031161 -1.618310703146212 0  -1.3020054856637 1.619819977935582 0  -2.000000000004996 -1.566396763829867 0  -1.999999999994794 1.566396763830688 0  -1.247812462071684 -1.595232739507426 0  4.59429106759859 1.420052135572917 0  0.9448382581152466 -1.440259145469251 0  -0.116376100998861 -0.2606209011258676 0  -4.774521510507792 0.4245390872783272 0  -2.983910172370106 -0.1208000607277856 0  -3.353983741142061 1.576062863985777 0  -5.473352579109997 0.4917619255280954 0  -4.828650470275986 -1.493148538517745 0  4.639973657165532 -0.2833178611094909 0  -2.660279445404468 0.7699932347178977 0  -1.335045190775955 0.7744876666923373 0  -3.395669172689978 0.2584951122361346 0  2.279110606119369 -1.465899541383697 0  4.734317729212562 0.4520963557364723 0  -0.6334913028224612 1.584213953723378 0  2.121854101359879 -0.4289611127787379 0  -3.474459720833238 -0.4977581316675216 0  -1.066539898844178 0.3411379476537602 0  -3.361849707555382 -1.611428512420182 0  -4.099039818938317 0.3306400369415774 0  -2.935324777364672 0.354721898811665 0  -3.973578595052027 1.482940358734671 0  3.784450148635689 -0.0702780807301525 0  -1.191348122671212 -0.5614501189722798 0  -2.838672605956353 -0.5493179047027598 0  -1.184983441257359 0.5617520886612424 0  -2.811184099847449 0.5574240755049175 0  0.2702752249355158 -0.8003643570420809 0  -0.6945947797857237 -1.593893965175195 0  0.001175881878679056 1.504521009023778 0  0.6072931735145096 1.501814722697789 0  -3.991896293645949 -1.047264188412552 0  -3.734097395159253 -0.3261671578666079 0  -5.539652387691843 -0.8857154182585802 0  -4.395061924111849 1.563293728588296 0  0.2258327611651416 -0.08745142624872881 0  -3.774816634825771 0.8676973328379478 0  2.208484493569073 1.6256686312487 0  0.1309939514660535 -1.566169703482512 0  -5.551414360955331 0.9459842275970113 0  -4.04734138658365 -1.51163984963472 0  -4.947145019546805 -0.3299925153029702 0  4.320410447198621 0.6970857582435144 0  -4.707557346727139 -1.000565649857444 0  1.353711468973986 1.582551234446199 0  1.674156483558973 0.3266252271732694 0  -4.039105552973997 -0.4537604746027087 0  0.01051727619263377 -1.088858357362194 0  -0.2234942609176301 0.8619127912343982 0  -2.95903482691863 0.1219373374385197 0  -4.682467695920681 0.0804575682243254 0  5.535750224195656 -0.1525732643419722 0  -4.290083947414376 -0.0005258314026840717 0  1.136102562417988 0.7655312464039168 0  -2.816589394567214 0.9927597419785312 0  -2.645374456162409 -0.7645902451387543 0  4.18414576655837 1.624276131878667 0  0.7127337088822223 -0.9006358935856398 0  1.972418102153911 0.9727040774616764 0  -2.42199174813501 0.8591219219254587 0  -2.418604734200992 -0.8552987735117754 0  -5.573597213364169 -0.03612430678117123 0  2.024792870869397 0.05574071630590883 0  -1.578875191508968 0.861424470724936 0  -1.54706008231699 -0.8630049102346303 0  3.848662181064435 -1.569601980075533 0  -2.000000000003871 -0.9746445732264465 0  -1.99999999
[...]
<PointData  Vectors="f_22"> 
<DataArray  type="Float64"  Name="f_22"  NumberOfComponents="3" format="ascii">0.0000000000000000e+00 0.0000000000000000e+00 0.0000000000000000e+00  0.0000000000000000e+00 0.0000000000000000e+00 0.0000000000000000e+00  0.0000000000000000e+00 0.0000000000000000e+00 0.0000000000000000e+00  0.0000000000000000e+00 0.0000000000000000e+00 0.0000000000000000e+00  9.9999995696669053e-01 0.0000000000000000e+00 0.0000000000000000e+00  9.9999995696669053e-01 0.0000000000000000e+00 0.0000000000000000e+00  0.0000000000000000e+00 0.0000000000000000e+00 0.0000000000000000e+00  0.0000000000000000e+00 0.0000000000000000e+00 0.0000000000000000e+00  0.0000000000000000e+00 0.0000000000000000e+00 0.0000000000000000e+00  0.0000000000000000e+00 0.0000000000000000e+00 0.0000000000000000e+00  0.0000000000000000e+00 0.0000000000000000e+00 0.0000000000000000e+00  0.0000000000000000e+00 0.0000000000000000e+00 0.0000000000000000e+00  0.0000000000000000e+00 0.0000000000000000e+00 0.0000000000000000e+00  0.0000000000000000e+00 0.0000000000000000e+00 0.0000000000000000e+00  0.0000000000000000e+00 0.0000000000000000e+00 0.0000000000000000e+00  0.0000000000000000e+00 0.0000000000000000e+00 0.0000000000000000e+00  0.0000000000000000e+00 0.0000000000000000e+00 0.0000000000000000e+00  0.0000000000000000e+00 0.0000000000000000e+00 0.0000000000000000e+00  0.0000000000000000e+00 0.0000000000000000e+00 0.0000000000000000e+00  0.0000000000000000e+00 0.0000000000000000e+00 0.0000000000000000e+00  0.0000000000000000e+00 0.0000000000000000e+00 0.0000000000000000e+00  0.0000000000000000e+00 0.0000000000000000e+00 0.0000000000000000e+00  0.0000000000000000e+00 0.0000000000000000e+00 0.0000000000000000e+00  0.0000000000000000e+00 0.0000000000000000e+00 0.0000000000000000e+00  0.0000000000000000e+00 0.0000000000000000e+00 0.0000000000000000e+00  0.0000000000000000e+00 0.0000000000000000e+00 0.0000000000000000e+00  0.0000000000000000e+00 0.0000000000000000e+00 0.0000000000000000e+00  0.0000000000000000e+00 0.0000000000000000e+00 0.0000000000000000e+00  0.0000000000000000e+00 0.0000000000000000e+00 0.0000000000000000e+00  3.7376552284883990e-01 -2.9815909604177326e-04 0.0000000000000000e+00  6.1974298710889408e-01 -7.0153166910483645e-04 0.0000000000000000e+00  7.6294234343196099e-01 -6.4915498540820370e-04 0.0000000000000000e+00  8.1026169498878042e-01 -2.6154723593071174e-05 0.0000000000000000e+00  7.6288528766161745e-01 6.1252953056948950e-04 0.0000000000000000e+00  6.1981514787600456e-01 7.1960320306553886e-04 0.0000000000000000e+00  3.7386588942158022e-01 2.9741601694688129e-04 0.0000000000000000e+00  0.0000000000000000e+00 0.0000000000000000e+00 0.0000000000000000e+00  0.0000000000000000e+00 0.0000000000000000e+00 0.0000000000000000e+00  0.0000000000000000e+00 0.0000000000000000e+00 0.0000000000000000e+00  0.0000000000000000e+00 0.0000000000000000e+00 0.0000000000000000e+00  0.0000000000000000e+00 0.0000000000000000e+00 0.0000000000000000e+00  0.0000000000000000e+00 0.0000000000000000e+00 0.0000000000000000e+00  0.0000000000000000e+00 0.0000000000000000e+00 0.0000000000000000e+00  0.0000000000000000e+00 0.0000000000000000e+00 0.0000000000000000e+00  0.0000000000000000e+00 0.0000000000000000e+00 0.0000000000000000e+00  0.0000000000000000e+00 0.0000000000000000e+00 0.0000000000000000e+00  0.0000000000000000e+00 0.0000000000000000e+00 0.0000000000000000e+00  0.0000000000000000e+00 0.0000000000000000e+00 0.0000000000000000e+00  0.0000000000000000e+00 0.0000000000000000e+00 0.0000000000000000e+00  0.0000000000000000e+00 0.0000000000000000e+00 0.0000000000000000e+00  0.0000000000000000e+00 0.0000000000000000e+00 0.0000000000000000e+00  0.0000000000000000e+00 0.0000000000000000e+00 0.0000000000000000e+00  0.0000000000000000e+00 0.0000000000000000e+00 0.0000000000000000e+00  0.0000000000000000e+00 0.0000000000000000e+00 0.0000000000000000e+00  0.0000000000000000e+00 0.0000000000000000e+00 0.0000000000000000e+00  0.0000000000000000e+00 0.0000000000000000e+00 0.0000000000000000e+00  0.0000000000000000e+00 0.0000000000000000e+00 0.0000000000000000e+00  0.0000000000000000e+00 0.0000000000000000e+00 0.0000000000000000e+00  0.0000000000000000e+00 0.0000000000000000e+00 0.0000000000000000e+00  3.7264421154105792e-01 -6.0234522356115180e-04 0.0000000000000000e+00  6.1919756157003447e-01 -1.0402345480973877e-03 0.0000000000000000e+00  7.6357787957518553e-01 -8.3463229006940391e-04 0.0000000000000000e+00  8.1186132437485348e-01 -1.3187892304441852e-05 0.0000000000000000e+00  7.6421555771029670e-01 9.5292378271068646e-04 0.0000000000000000e+00  6.1947351285784213e-01 1.1044765261010875e-03 0.0000000000000000e+00  3.7272004505132544e-01 6.2581383587175725e-04 0.0000000000000000e+00  9.9999995696669053e-01 0.0000000000000000e+00 0.0000000000000000e+00  9.9999995696669053e-01 0.0000000000000000e+00 0.0000000000000000e+00  9.9999995696669053e-01 0.0000000000000000e+00 0.0000000000000000e+00  9.9999995696669053e-01 0.0000000000000000e+00 0.0000000000000000e+00  9.9999995696669053e-01 0.0000000000000000e+00 0.0000000000000000e+00  9.9999995696669053e-01 0.0000000000000000e+00 0.0000000000000000e+00  9.9999995696669053e-01 0.0000000000000000e+00 0.0000000000000000e+00  9.9999995696669053e-01 0.0000000000000000e+00 0.0000000000000000e+00  9.9999995696669053e-01 0.0000000000000000e+00 0.0000000000000000e+00  9.9999995696669053e-01 0.0000000000000000e+00 0.0000000000000000e+00  9.9999995696669053e-01 0.0000000000000000e+00 0.0000000000000000e+00  9.9999995696669053e-01 0.0000000000000000e+00 0.0000000000000000e+00  9.9999995696669053e-01 0.0000000000000000e+00 0.0000000000000000e+00  9.9999995696669053e-01 0.0000000000000000e+00 0.0000000000000000e+00  9.9999995696669053e-01 0.0000000000000000e+00 0.0000000000000000e+00  9.9999995696669053e-01 0.0000000000000000e+00 0.0000000000000000e+00  9.9999995696669053e-01 0.0000000000000000e+00 0.0000000000000000e+00  9.9999995696669053e-01 0.0000000000000000e+00 0.0000000000000000e+00  9.9999995696669053e-01 0.0000000000000000e+00 0.0000000000000000e+00  9.9999995696669053e-01 0.0000000000000000e+00 0.0000000000000000e+00  9.9999995696669053e-01 0.0000000000000000e+00 0.0000000000000000e+00  9.9999995696669053e-01 0.0000000000000000e+00 0.0000000000000000e+00  9.9999995696669053e-01 0.0000000000000000e+00 0.0000000000000000e+00  9.9999995696669053e-01 0.0000000000000000e+00 0.0000000000000000e+00  8.8509458583856948e-01 1.8549079826722326e-02 0.0000000000000000e+00  8.0577237685804537e-01 -5.1765172287815131e-03 0.0000000000000000e+00  7.3052196825649107e-01 3.0878540022216606e-02 0.0000000000000000e+00  7.7729593579862744e-01 -5.0818436795667575e-02 0.0000000000000000e+00  8.3257753641107701e-01 1.7794599642933780e-05 0.0000000000000000e+00  7.6530503781761561e-01 -4.5240698014958690e-02 0.0000000000000000e+00  7.9920934709254809e-01 1.2744312359955639e-03 0.0000000000000000e+00  8.3288176997921193e-01 4.8367770589600935e-02 0.0000000000000000e+00  4.7332695381026052e-01 -8.9402452522224590e-02 0.0000000000000000e+00  4.6235877552087762e-01 8.2407778073189483e-02 0.0000000000000000e+00  7.0059110299471283e-01 -2.6185492860500863e-02 0.0000000000000000e+00  7.1526628049463581e-01 4.0429713269210295e-03 0.0000000000000000e+00  4.5977269258910530e-01 8.8944557535895974e-02 0.0000000000000000e+00  3.4820589012207948e-01 -7.3503536065260042e-02 0.0000000000000000e+00  8.6339244316400510e-01 2.4452744993908572e-02 0.0000000000000000e+00  9.7341051468068829e-01 -9.5444216502774057e-03 0.0000000000000000e+00  7.0741353298964815e-01 1.7089514816994847e-02 0.0000000000000000e+00  6.8087579866858616e-01 -3.9672218476492866e-03 0.0000000000000000e+00  6.8350083269147854e-01 -1.5313792646263742e-03 0.0000000000000000e+00  6.6880128684915385e-01 4.7566973284432429e-03 0.0000000000000000e+00  5.1198179531090082e-01 -1.1168870158691445e-02 0.0000000000000000e+00  2.3286201364873910e-01 9.6463761045205113e-02 0.0000000000000000e+00  1.8912009052488993e-01 1.9284731277838429e-02 0.0000000000000000e+00  1.8706134969687130e-01 -1.8268901579061889e-02 0.0000000000000000e+00  2.3198936142145080e-01 -9.6286133304557944e-02 0.0000000000000000e+00  6.7754684695342560e-01 -2.7459221904323531e-03 0.0000000000000000e+00  6.2966023985275377e-01 -1.1508940855850157e-02 0.0000000000000000e+00  6.3378309289688539e-01 1.2944218017205732e-03 0.0000000000000000e+00  5.0030385849260661e-01 4.1906825750232579e-02 0.0000000000000000e+00  8.1217747534269180e-01 -3.7217725919086485e-04 0.0000000000000000e+00  7.6945307533282681e-01 9.7326540770612535e-02 0.0000000000000000e+00  8.4800163377044036e-01 -7.9089819328973340e-02 0.0000000000000000e+00  9.5454343430160871e-01 2.3707627211566318e-02 0.0000000000000000e+00  8.3498465563944846e-01 -6.0549985101422052e-02 0.0000000000000000e+00  5.1090874151732979e-01 8.9027126593224978e-03 0.0000000000000000e+00  8.5299372436281262e-01 -2.2498945282732434e-03 0.0000000000000000e+00  5.1967642903021893e-01 6.8410098337159846e-03 0.0000000000000000e+00  8.1164454397894759e-01 6.4427434116930268e-05 0.0000000000000000e+00  5.5277125094144064e-01 1.9688021881998446e-03 0.0000000000000000e+00  8.2886371910572776e-01 7.1433834488623116e-03 0.0000000000000000e+00  4.6042078054118291e-01 -3.5260831823557437e-02 0.0000000000000000e+00  4.5298561415531069e-01 2.5421742397738367e-02 0.0000000000000000e+00  5.1573150296472225e-01 -3.2789999261571480e-02 0.0000000000000000e+00  8.3976049047082646e-01 -2.9016412844408489e-02 0.0000000000000000e+00  8.2046505610007636e-01 5.2939537979086954e-04 0.0000000000000000e+00  4.7571856098159931e-01 1.6229449066190066e-01 0.0000000000000000e+00  5.3661377114961262e-01 7.3394284839689586e-02 0.0000000000000000e+00  2.9837441769772199e-01 5.2546848759429200e-02 0.0000000000000000e+00  5.1593102150955938e-01 -7.2419471275650252e-02 0.0000000000000000e+00  2.9849474615866695e-01 -5.2322920061883126e-02 0.0000000000000000e+00  4.7917942453573215e-01 -1.6238107751694136e-01 0.0000000000000000e+00  5.1618828562085162e-01 -1.6754360922332987e-03 0.0000000000000000e+00  4.2151477511269592e-01 6.0536147508575076e-02 0.0000000000000000e+00  3.3159889778221951e-01 -4.8518555877130172e-02 0.0000000000000000e+00  9.4462585339220151e-01 9.7051004043492740e-03 0.0000000000000000e+00  5.0951670791954629e-01 -4.6236792692060510e-03 0.0000000000000000e+00  7.1110458939327148e-01 -1.4268817153814906e-01 0.0000000000000000e+00  4.5798044309828734e-01 1.9999212801718212e-02 0.0000000000000000e+00  4.7852124081312958e-01 1.3677196260813752e-03 0.0000000000000000e+00  7.9315319057616540e-01 6.9040959920691286e-02 0.0000000000000000e+00  8.0858475675728880e-01 3.4106314508395327e-03 0.0000000000000000e+00  9.1944013464391328e-01 -1.4368589824859442e-02 0.0000000000000000e+00  9.9356989971234166e-01 3.9841293441226786e-03 0.0000000000000000e+00  7.6847801525964277e-01 -2.1013230036146984e-03 0.0000000000000000e+00  4.7650514890190465e-01 -6.2751619762843852e-04 0.0000000000000000e+00  9.6524931582085405e-01 -2.1088505036661261e-02 0.0000000000000000e+00  7.2587037655345732e-01 -2.0182122436927945e-02 0.0000000000000000e+00  4.4013470260743848e-01 -1.2289183889745809e-02 0.0000000000000000e+00  8.4947554711989692e-01 -1.3126112918478946e-02 0.0000000000000000e+00  6.9010770315577852e-01 1.5045954868427541e-01 0.0000000000000000e+00  8.4930453988853361e-01 1.3664817612165158e-02 0.0000000000000000e+00  9.7381445555700030e-01 8.9312039254355637e-03 0.0000000000000000e+00  4.2211313500716319e-01 -2.7902677444712545e-03 0.0000000000000000e+00  8.8609246538013653e-01 8.2569879635598101e-02 0.0000000000000000e+00  6.9174135830751726e-01 -7.5211048028339649e-03 0.0000000000000000e+00  7.6054588260394140e-01 -5.9589245204700707e-03 0.0000000000000000e+00  7.0523500617230039e-01 1.3267256455252929e-02 0.0000000000000000e+00  6.5745258308279386e-01 -7.0597363244365302e-02 0.0000000000000000e+00  4.1524184512799367e-01 7.7189407281703171e-03 0.0000000000000000e+00  7.9474937171879945e-01 -7.0469100200634849e-02 0.0000000000000000e+00  4.5577019487193432e-01 -1.0838237853875519e-03 0.0000000000000000e+00  4.5205673882715386e-01 1.2234326332062469e-01 0.0000000000000000e+00  5.0296712506928520e-01 -2.9666827362011705e-02 0.0000000000000000e+00  5.0598650758130825e-01 3.0066743549434203e-02 0.0000000000000000e+00  4.5178309837738445e-01 -1.2255918939561350e-01 0.0000000000000000e+00  8.8440971171194727e-01 -4.1119941020500907e-02 0.0000000000000000e+00  7.6799179531416129e-01 1.0593276563006970e-02 0.0000000000000000e+00  7.3644442540749744e-01 4.9338098066299275e-02 0.0000000000000000e+00  8.6444701669492030e-01 -1.0390759123134275e-02 0.0000000000000000e+00  7.7569379549382156e-01 1.1860085143941741e-03 0.0000000000000000e+00  7.5743020355523105e-01 -9.1772656819456844e-04 0.0000000000000000e+00  4.3875079050947313e-01 -2.0535460236889486e-03 0.0000000000000000e+00  6.5131451977033072e-01 -7.6274006614187720e-02 0.0000000000000000e+00  9.9629079405025844e-01 -2.7662017714001059e-03 0.0000000000000000e+00  6.5713988953734448e-01 3.5096860909622482e-02 0.0000000000000000e+00  4.2840213159465629e-01 3.0076040945697983e-03 0.0000000000000000e+00  4.6329812036762624e-01 -9.0775957439294039e-04 0.0000000000000000e+00  4.3456527862257477e-01 4.8160010221196762e-04 0.0000000000000000e+00  4.5532998318935664e-01 1.9836752259647962e-03 0.0000000000000000e+00  7.7486293920439719e-01 5.9140561690809593e-03 0.0000000000000000e+00  6.7648576860090126e-01 7.3052355940230657e-02 0.0000000000000000e+00  7.4272610365139347e-01 8.9974906319596553e-04 0.0000000000000000e+00  1.6822761578478138e-01 -4.0459771921235697e-02 0.0000000000000000e+00  5.9387738588881855e-01 5.4156547339181488e-02 0.0000000000000000e+00  7.2483457798967332e-01 -1.5515322639823383e-02 0.0000000000000000e+00  7.7572941747575919e-01 2.8442389016523008e-03 0.0000000000000000e+00  1.6785779393009809e-01 4.0202006579476375e-02 0.0000000000000000e+00  6.0119652444371563e-02 2.3840989502623075e-02 0.0000000000000000e+00  6.8142064088391616e-02 2.9681837611750885e-02 0.0000000000000000e+00  6.8096776168726891e-02 -2.9647536153333921e-02 0.0000000000000000e+00  7.7915441995492496e-02 -2.8193772616659375e-02 0.0000000000000000e+00  4.1907726462371336e-01 8.1111578784183751e-04 0.0000000000000000e+00  3.6211368681246175e-01 -1.4412071281451602e-02 0.0000000000000000e+00  9.2874373060922832e-01 -1.9151868895516264e-02 0.0000000000000000e+00  7.8057464421450962e-01 -3.8882857593235840e-03 0.0000000000000000e+00  9.5479155670419680e-01 2.9848975860369806e-02 0.0000000000000000e+00  2.7770404660143327e-01 -2.0837008207132631e-02 0.0000000000000000e+00  7.6575712496459059e-01 -1.1055129526201617e-03 0.0000000000000000e+00  3.7429676434025350e-01 2.1924029536670776e-03 0.0000000000000000e+00  7.9758362165543062e-01 -9.4783428865921897e-04 0.0000000000000000e+00  7.0983507748674657e-01 -1.7076694442113086e-01 0.0000000000000000e+00  8.4393162517583897e-01 6.1402337975767871e-02 0.0000000000000000e+00  8.6053938158229526e-01 -3.3050304299973091e-02 0.0000000000000000e+00  3.7912219314193057e-01 -4.1804048774783395e-03 0.0000000000000000e+00  7.7314098570921119e-01 1.2767790142994878e-03 0.0000000000000000e+00  1.5945952064927754e-01 3.1957026534610765e-02 0.0000000000000000e+00  7.9392377982056406e-01 -8.7270377382869836e-03 0.0000000000000000e+00  7.9853730491230235e-01 4.8251473619948956e-02 0.0000000000000000e+00  9.8750155167426190e-01 1.0819774285201670e-02 0.0000000000000000e+00  2.5664391569019918e-01 1.7641339502453567e-02 0.0000000000000000e+00  8.0585206339989945e-01 -1.1106768689786838e-02 0.0000000000000000e+00  9.1268971663560605e-01 -8.7462515718374712e-02 0.0000000000000000e+00  3.6666786560972253e-01 -1.0267238483564367e-02 0.0000000000000000e+00  8.1645809246667533e-01 -4.7419111268937080e-04 0.0000000000000000e+00  9.5367428604348081e-01 -2.9827138757187482e-02 0.0000000000000000e+00  8.4183970708945888e-01 1.3426582473060503e-01 0.0000000000000000e+00  9.5255061480173664e-01 3.0467936175657909e-02 0.0000000000000000e+00  8.4286401650307341e-01 -1.3765191016367259e-01 0.0000000000000000e+00  6.9718204336125278e-01 -4.7253187824976305e-02 0.0000000000000000e+00  1.4614704356186595e-01 -3.2030651672923502e-02 0.0000000000000000e+00  2.6885004665302936e-01 2.8103177402497081e-02 0.0000000000000000e+00  3.1104059307694076e-01 1.6762707070679679e-02 0.0000000000000000e+00  5.9244820315984548e-01 2.0652259091293496e-02 0.0000000000000000e+00  8.2181492350515961e-01 2.1766068486878246e-02 0.0000000000000000e+00  6.6107747256978300e-01 1.4401900018934520e-03 0.0000000000000000e+00  3.2602135158330608e-01 -3.6473473422511502e-03 0.0000000000000000e+00  9.2586432345133562e-01 -6.5099990287295186e-03 0.0000000000000000e+00  6.6465526903200345e-01 -3.3436356699258651e-02 0.0000000000000000e+00  2.7878911962189790e-01 2.4223326102315126e-03 0.0000000000000000e+00  2.4386829286375875e-01 -2.0407600723045302e-02 0.0000000000000000e+00  6.3943941350487932e-01 -1.3730314289382060e-03 0.0000000000000000e+00  3.5142086721089311e-01 8.2827366275684908e-03 0.0000000000000000e+00  7.9381312082319033e-01 2.2709533347550393e-03 0.0000000000000000e+00  7.1872016380379111e-01 2.1217386122361018e-03 0.0000000000000000e+00  6.1777935356433133e-01 5.9172830709139082e-03 0.0000000000000000e+00  2.9129796504831523e-01 6.2090500657367284e-03 0.0000000000000000e+00  8.2234119025328323e-01 9.6198401913498068e-03 0.0000000000000000e+00  7.8610482006275506e-01 1.6106854231770888e-02 0.0000000000000000e+00  5.2619517784226377e-01 -5.4588106300590404e-02 0.0000000000000000e+00  6.7362279574853212e-01 6.1515573139361943e-02 0.0000000000000000e+00  9.6111222723472323e-01 -3.0510300010618850e-02 0.0000000000000000e+00  8.1631251357014778e-01 -8.4242213654638586e-04 0.0000000000000000e+00  8.0649254564640682e-01 -3.0833966851672329e-04 0.0000000000000000e+00  8.2481473207498723e-01 2.7053605021332157e-05 0.0000000000000000e+00  7.0336653280798611e-01 2.4833117216356809e-02 0.0000000000000000e+00  5.5458229208320076e-01 -1.4607061912741739e-01 0.0000000000000000e+00  7.1602635942218795e-01 1.6927885951133434e-01 0.0000000000000000e+00  2.9104072522392432e-01 5.0435299087408212e-04 0.0000000000000000e+00  6.4327566141173831e-01 -3.5323072128855604e-02 0.0000000000000000e+00  6.2016707170201602e-01 1.2315319504423888e-02 0.0000000000000000e+00  6.5801408485528035e-01 -1.4623856594639453e-01 0.0000000000000000e+00  6.6387226545784095e-01 1.4387199349027857e-01 0.0000000000000000e+00  8.1200917551883256e-01 5.3253661728353367e-05 0.0000000000000000e+00  8.4078054329106988e-01 1.3690281691300750e-03 0.0000000000000000e+00  7.8517679646456351e-01 5.5671384452754144e-02 0.0000000000000000e+00  7.7838710794792565e-01 -5.9422648898634745e-02 0.0000000000000000e+00  3.2638745731694646e-01 -8.0687966344638088e-04 0.0000000000000000e+00  5.8664857388997793e-01 3.1238417970917406e-02 0.0000000000000000e+00  5.8662305797039893e-01 -3.1259514848824402e-02 0.0000000000000000e+00  3.6346078701453671e-01 -1.0553569483804956e-01 0.0000000000000000e+00  6.4062796436013225e-01 3.3734865457644963e-03 0.0000000000000000e+00  5.9461639540078981e-01 8.4995811674233479e-02 0.0000000000000000e+00  8.9677156906765620e-01 -2.4461469073731017e-03 0.0000000000000000e+00  6.2449107029019268e-01 8.1655385296685755e-04 0.0000000000000000e+00  6.4494999866505853e-01 -8.4952139256365519e-04 0.0000000000000000e+00  6.2287971749108662e-01 6.2164722000630059e-03 0.0000000000000000e+00  2.9427156248484820e-01 6.5266962608919829e-02 0.0000000000000000e+00  5.6151626016490241e-01 -8.5624668819865246e-02 0.0000000000000000e+00  6.6546109823573119e-01 -8.3668064747375141e-03 0.0000000000000000e+00  6.7373925397973689e-01 -2.0829926187318267e-03 0.0000000000000000e+00  2.9215608418979810e-01 -4.7216312927722418e-04 0.0000000000000000e+00  2.8237466533193317e-01 -3.8984375162905757e-03 0.0000000000000000e+00  8.4860840076688016e-01 -3.5064820696259921e-02 0.