<?xml version="1.0"?>
<VTKFile type="UnstructuredGrid"  version="0.1"  >
<UnstructuredGrid>
<Piece  NumberOfPoints="622" NumberOfCells="1116">
<Points>
<DataArray  type="Float64"  NumberOfComponents="3"  format="ascii">-6 -2 0  -6 2 0  6 2 0  6 -2 0  -2.8 0 0  -1.2 0 0  -5.500000000001853 -2 0  -5.000000000003705 -2 0  -4.500000000005556 -2 0  -4.000000000007409 -2 0  -3.50000000000926 -2 0  -3.000000000011112 -2 0  -2.500000000012963 -2 0  -2.000000000014814 -2 0  -1.500000000016665 -2 0  -1.000000000018516 -2 0  -0.5000000000203677 -2 0  -2.204547655537681e-11 -2 0  0.4999999999796305 -2 0  0.9999999999814779 -2 0  1.499999999983327 -2 0  1.999999999985175 -2 0  2.499999999987029 -2 0  2.999999999988882 -2 0  3.499999999990735 -2 0  3.999999999992589 -2 0  4.49999999999444 -2 0  4.999999999996293 -2 0  5.499999999998147 -2 0  6 -1.500000000001387 0  6 -1.000000000002774 0  6 -0.5000000000041616 0  6 -5.505595979116151e-12 0  6 0.4999999999958384 0  6 0.9999999999972258 0  6 1.499999999998613 0  5.500000000001853 2 0  5.000000000003705 2 0  4.500000000005556 2 0  4.000000000007409 2 0  3.50000000000926 2 0  3.000000000011112 2 0  2.500000000012963 2 0  2.000000000014814 2 0  1.500000000016665 2 0  1.000000000018516 2 0  0.5000000000203677 2 0  2.204547655537681e-11 2 0  -0.4999999999796305 2 0  -0.9999999999814779 2 0  -1.499999999983327 2 0  -1.999999999985175 2 0  -2.499999999987029 2 0  -2.999999999988882 2 0  -3.499999999990735 2 0  -3.999999999992589 2 0  -4.49999999999444 2 0  -4.999999999996293 2 0  -5.499999999998147 2 0  -6 1.500000000001387 0  -6 1.000000000002774 0  -6 0.5000000000041616 0  -6 5.505595979116151e-12 0  -6 -0.4999999999958384 0  -6 -0.9999999999972258 0  -6 -1.499999999998613 0  -2.796147781337886 -0.07841371226233997 0  -2.784628224322852 -0.1560722576115546 0  -2.765552268586196 -0.2322277418021561 0  -2.739103626009626 -0.30614674589063 0  -2.705537011479457 -0.3771173894593519 0  -2.665175689843037 -0.4444561864141836 0  -2.618408362691456 -0.5075146273293722 0  -2.565685424950688 -0.5656854249477874 0  -2.507514627332613 -0.6184083626887972 0  -2.444456186417533 -0.6651756898407991 0  -2.377117389462776 -0.7055370114776264 0  -2.306146745894456 -0.7391036260080417 0  -2.232227741806235 -0.7655522685849585 0  -2.15607225761588 -0.784628224321992 0  -2.078413712266957 -0.7961477813374315 0  -2.000000000003407 -0.7999999999999998 0  -1.921586287739523 -0.7961477813380696 0  -1.843927742389945 -0.7846282243231506 0  -1.767772258198879 -0.7655522685865098 0  -1.693853254109962 -0.7391036260098718 0  -1.622882610540873 -0.7055370114795768 0  -1.555543813585629 -0.6651756898429115 0  -1.49248537267008 -0.6184083626910072 0  -1.434314575051535 -0.5656854249500112 0  -1.381591637310384 -0.5075146273316149 0  -1.334824310158267 -0.4444561864161359 0  -1.294462988521423 -0.3771173894609975 0  -1.260896373990956 -0.3061467458920351 0  -1.234447731414138 -0.2322277418032578 0  -1.215371775677287 -0.156072257612254 0  -1.203852218662147 -0.07841371226267954 0  -1.203852218662115 0.07841371226235888 0  -1.215371775677132 0.156072257611478 0  -1.234447731413795 0.232227741802127 0  -1.260896373990353 0.3061467458905811 0  -1.294462988520456 0.3771173894591898 0  -1.334824310156812 0.444456186413959 0  -1.381591637308413 0.5075146273292139 0  -1.434314575049147 0.5656854249476236 0  -1.492485372667197 0.6184083626886415 0  -1.555543813582104 0.6651756898405565 0  -1.62288261053673 0.7055370114773629 0  -1.693853254105125 0.7391036260078683 0  -1.767772258193396 0.7655522685848468 0  -1.84392774238373 0.7846282243219146 0  -1.921586287732977 0.7961477813374253 0  -1.999999999996558 0.8 0  -2.078413712260516 0.7961477813380661 0  -2.156072257610207 0.7846282243231205 0  -2.232227741801178 0.7655522685864928 0  -2.306146745890059 0.7391036260098632 0  -2.377117389459098 0.7055370114795929 0  -2.444456186414405 0.6651756898428894 0  -2.50751462732998 0.6184083626909587 0  -2.565685424948549 0.5656854249499272 0  -2.61840836268981 0.5075146273313792 0  -2.665175689841831 0.4444561864159886 0  -2.705537011478692 0.3771173894607835 0  -2.739103626009108 0.3061467458918818 0  -2.76555226858589 0.2322277418031643 0  -2.784628224322724 0.1560722576122001 0  -2.796147781337853 0.07841371226267957 0  0.6720367661319522 0.1312687487860887 0  -4.389489086394485 0.3544472233398538 0  -3.816221554046232 -0.6097988664512611 0  -3.552726516474419 0.9342959806851625 0  -0.2536610443052337 0.8162373554653355 0  -0.1843238977799138 -0.6649951410982842 0  -3.613359951620445 0.1086570650978273 0  -3.146954163409593 -1.074378179335012 0  -0.4255266515582625 0.07734891565364931 0  -0.9413731612925856 1.168014724254929 0  -2.947764053183577 1.200029094390044 0  -0.8319852757411681 -1.058626838707328 0  2.675418990747819 -1.137325591670363e-12 0  -2.602010642259726 -1.287560129290477 0  -2.334401622060699 1.335006108940604 0  -1.524718496628401 1.32890816230333 0  -1.369813829148039 -1.26145150481762 0  -3.294065651892671 -0.4630240940010318 0  -2.072749204569071 -1.388981302138359 0  -0.7546165313921411 0.5601792161340381 0  -3.224879719581335 0.4382689715877901 0  -0.7073137361349826 -0.4625305410752652 0  4.326242945813966 0.3262429458150917 0  -3.187880061217201 0.07437712177460168 0  -2.94792024259867 0.7030255657465158 0  -2.678809277907896 0.9152683582887104 0  -4.911626141576894 -0.5700186648601188 0  -2.980647654587299 -0.5685006168686053 0  -2.769438919323564 -0.8202775213660614 0  -1.936950121013948 1.220669938589229 0  -0.8971643766260747 0.2762459428874499 0  -0.8760878018253068 -0.06836412137772707 0  -1.086827485441145 0.6772548942594016 0  -1.31355927028917 0.8808768148414213 0  -1.034266382739347 -0.5912381576649568 0  -1.241594139118264 -0.836771920085274 0  1.667161185638911 -0.6367996576268693 0  1.778189842800902 0.7191719841256095 0  -3.065106827511819 -0.266795371500425 0  3.714311277362231 -0.7275465302492842 0  -1.728329421201519 -1.09954751473283 0  4.870629493137888 -0.7325040699186681 0  -3.024707894719303 0.2567561910603656 0  -4.375540207252226 1.228935704312058 0  -2.272077148001781 -1.086192861256262 0  3.351408248797803 0.9175227128129597 0  -5.141847419540732 0.8091901960109126 0  0.5769368286199241 1.111816231125821 0  0.7411482978492124 -1.079569101289617 0  -1.074013749991219 0.430231207546053 0  -1.04664573441257 -0.3358382377487088 0  -2.439195336951085 0.9224778883059374 0  -2.902607676587358 0.4360473765597399 0  -1.629450174302152 1.035617385691805 0  -2.146859933125513 1.032375363966426 0  2.587625196444542 -0.9999926061845814 0  -2.529286802957126 -0.8830616815739111 0  -1.493798157676768 -0.8794705728517196 0  -1.932158132383022 -1.026681566564148 0  -4.09956359341904 -0.1372485582942864 0  5.055802064425553 1.050933510837308 0  -4.413659685984891 -1.207626391697488 0  -4.961411026474009 0.1201902955685026 0  -3.771151641156835 -1.303594976371997 0  -3.001321503506133 -0.04919177107285733 0  -3.881733605683001 0.5124517634812003 0  -0.1971627317996802 -1.336445372382849 0  -2.742825060181767 0.6732573903735507 0  2.520439429199979 1.129372838786189 0  -1.026326428668429 0.1384273198437734 0  -2.779290004861729 -0.5844691722665721 0  -2.895095740820851 -0.4261289730972082 0  -1.275682076193407 0.6630703172777138 0  0.1045291701958869 0.3433373435296472 0  5.175560481258801 0.0608563229178163 0  -1.211574424201636 -0.5847362589868093 0  -1.85847006217035 1.007917631940711 0  4.152535916385823 1.131901130662082 0  -1.04878257200685 -0.1253529988863012 0  1.432836501626023 0.05634449574318775 0  3.560672936003603 0.01188897172456759 0  -3.351823698389408 -0.1821329582635926 0  -5.145153363200735 -1.259166339382508 0  0.03473693330309885 -0.1724947236036572 0  -4.377830921337186 -0.6172564090242229 0  -0.3943750728122595 1.410897156959435 0  -1.661073679471639 -0.9342065000197183 0  -1.49086536677686 0.8331714487926741 0  -2.584486130952032 0.7871482690034864 0  4.270535884593893 -1.259607924744415 0  -1.757417028085795 -1.505182186951191 0  -3.430586920998477 1.425579221231371 0  -2.917598827418652 -0.2298465409534677 0  -2.328978331116049 -0.9300959620317677 0  -2.148543000691344 -0.9751580214451921 0  1.002654111360038 -0.4521702885594788 0  -4.628651824080903 -0.1127998710567241 0  -2.948904386702482 0.1555943115410545 0  0.4165242577134774 -0.5629432649478633 0  -3.698137692471105 -0.3173027948676715 0  -3.491400684461791 -0.7926319721650269 0  -0.3844454817728994 0.4680628696134375 0  -3.207830713508533 0.9778749990559993 0  3.229909751065535 -1.326302454776001 0  5.330007715336748 -1.312905173261894 0  -2.649214054100534 -0.713314536278899 0  1.342022964818772 -1.328315248672686 0  -2.556460939068198 1.202372762828344 0  -0.3497819755044588 -0.3080427614060888 0  -4.928440909495523 1.387622767511967 0  1.309170811945155 1.337467055109531 0  -1.352031940181449 -0.7151198948590243 0  -0.6132855723904642 0.9519045895123004 0  4.266838388406324 -0.3707357390867402 0  -3.834389788310238 1.371594798941152 0  -1.187890214580146 0.4851427123079557 0  -1.109118888029193 0.3185947354467283 0  0.1837819401738013 1.234799661476361 0  1.108165254659559 0.6237223548284967 0  -0.5266600156584522 -0.8113991260886402 0  -4.643822083543982 0.7834094684931707 0  -1.146235204666366 -0.4027330721405781 0  2.049029845992713 -0.2664662499985428 0  2.002665761665898 -1.328912351029848 0  -1.678783505586872 0.8978832065736417 0  -2.049499525232052 0.9483890761590005 0  -2.229972236535132 0.9181006323151361 0  -3.033763529945482 -1.54240494280775 0  -3.562344364746847 0.5622550957224539 0  -5.524396842903405 -0.2709714867672603 0  -0.9710982764034376 -1.549038578476423 0  3.058819320130555 -0.5375106252795963 0  -4.170365230099585 0.7342553699229977 0  -1.045878746461381 -8.187420622554697e-05 0  -1.864822945411764 -0.9219031104673102 0  -0.6251005091687033 -0.2120650512195049 0  2.317562622406059 0.4886417799113238 0  -0.6674371191466613 0.1483993095055008 0  -2.705757882979874 1.609712312948224 0  
[...]
<PointData  Vectors="f_22"> 
<DataArray  type="Float64"  Name="f_22"  NumberOfComponents="3" format="ascii">0.0000000000000000e+00 0.0000000000000000e+00 0.0000000000000000e+00  0.0000000000000000e+00 0.0000000000000000e+00 0.0000000000000000e+00  0.0000000000000000e+00 0.0000000000000000e+00 0.0000000000000000e+00  0.0000000000000000e+00 0.0000000000000000e+00 0.0000000000000000e+00  9.9999997743471569e-01 0.0000000000000000e+00 0.0000000000000000e+00  9.9999997743471569e-01 0.0000000000000000e+00 0.0000000000000000e+00  0.0000000000000000e+00 0.0000000000000000e+00 0.0000000000000000e+00  0.0000000000000000e+00 0.0000000000000000e+00 0.0000000000000000e+00  0.0000000000000000e+00 0.0000000000000000e+00 0.0000000000000000e+00  0.0000000000000000e+00 0.0000000000000000e+00 0.0000000000000000e+00  0.0000000000000000e+00 0.0000000000000000e+00 0.0000000000000000e+00  0.0000000000000000e+00 0.0000000000000000e+00 0.0000000000000000e+00  0.0000000000000000e+00 0.0000000000000000e+00 0.0000000000000000e+00  0.0000000000000000e+00 0.0000000000000000e+00 0.0000000000000000e+00  0.0000000000000000e+00 0.0000000000000000e+00 0.0000000000000000e+00  0.0000000000000000e+00 0.0000000000000000e+00 0.0000000000000000e+00  0.0000000000000000e+00 0.0000000000000000e+00 0.0000000000000000e+00  0.0000000000000000e+00 0.0000000000000000e+00 0.0000000000000000e+00  0.0000000000000000e+00 0.0000000000000000e+00 0.0000000000000000e+00  0.0000000000000000e+00 0.0000000000000000e+00 0.0000000000000000e+00  0.0000000000000000e+00 0.0000000000000000e+00 0.0000000000000000e+00  0.0000000000000000e+00 0.0000000000000000e+00 0.0000000000000000e+00  0.0000000000000000e+00 0.0000000000000000e+00 0.0000000000000000e+00  0.0000000000000000e+00 0.0000000000000000e+00 0.0000000000000000e+00  0.0000000000000000e+00 0.0000000000000000e+00 0.0000000000000000e+00  0.0000000000000000e+00 0.0000000000000000e+00 0.0000000000000000e+00  0.0000000000000000e+00 0.0000000000000000e+00 0.0000000000000000e+00  0.0000000000000000e+00 0.0000000000000000e+00 0.0000000000000000e+00  0.0000000000000000e+00 0.0000000000000000e+00 0.0000000000000000e+00  2.6047052435518753e-01 1.8971247438231246e-04 0.0000000000000000e+00  2.7825466267098276e-01 1.8294242194359309e-04 0.0000000000000000e+00  2.7933529523884704e-01 -1.2206370722417113e-05 0.0000000000000000e+00  2.7939484404805082e-01 2.8985244835352455e-06 0.0000000000000000e+00  2.7933869739107170e-01 -2.3801390384763368e-06 0.0000000000000000e+00  2.7888127331559009e-01 2.0466365357901272e-04 0.0000000000000000e+00  2.6121377840656312e-01 -4.3863138120771078e-04 0.0000000000000000e+00  0.0000000000000000e+00 0.0000000000000000e+00 0.0000000000000000e+00  0.0000000000000000e+00 0.0000000000000000e+00 0.0000000000000000e+00  0.0000000000000000e+00 0.0000000000000000e+00 0.0000000000000000e+00  0.0000000000000000e+00 0.0000000000000000e+00 0.0000000000000000e+00  0.0000000000000000e+00 0.0000000000000000e+00 0.0000000000000000e+00  0.0000000000000000e+00 0.0000000000000000e+00 0.0000000000000000e+00  0.0000000000000000e+00 0.0000000000000000e+00 0.0000000000000000e+00  0.0000000000000000e+00 0.0000000000000000e+00 0.0000000000000000e+00  0.0000000000000000e+00 0.0000000000000000e+00 0.0000000000000000e+00  0.0000000000000000e+00 0.0000000000000000e+00 0.0000000000000000e+00  0.0000000000000000e+00 0.0000000000000000e+00 0.0000000000000000e+00  0.0000000000000000e+00 0.0000000000000000e+00 0.0000000000000000e+00  0.0000000000000000e+00 0.0000000000000000e+00 0.0000000000000000e+00  0.0000000000000000e+00 0.0000000000000000e+00 0.0000000000000000e+00  0.0000000000000000e+00 0.0000000000000000e+00 0.0000000000000000e+00  0.0000000000000000e+00 0.0000000000000000e+00 0.0000000000000000e+00  0.0000000000000000e+00 0.0000000000000000e+00 0.0000000000000000e+00  0.0000000000000000e+00 0.0000000000000000e+00 0.0000000000000000e+00  0.0000000000000000e+00 0.0000000000000000e+00 0.0000000000000000e+00  0.0000000000000000e+00 0.0000000000000000e+00 0.0000000000000000e+00  0.0000000000000000e+00 0.0000000000000000e+00 0.0000000000000000e+00  0.0000000000000000e+00 0.0000000000000000e+00 0.0000000000000000e+00  0.0000000000000000e+00 0.0000000000000000e+00 0.0000000000000000e+00  2.5599440096745013e-01 -9.2051407275280735e-04 0.0000000000000000e+00  2.7653188705456061e-01 -9.6174295140092258e-04 0.0000000000000000e+00  2.8433213806921454e-01 -1.1422959603367068e-03 0.0000000000000000e+00  2.8817586274217200e-01 7.5637480255023924e-04 0.0000000000000000e+00  2.8503471008672976e-01 5.5148648815079139e-04 0.0000000000000000e+00  2.7721763111391157e-01 9.6457338286193121e-04 0.0000000000000000e+00  2.5557822321121754e-01 7.8294021008468661e-04 0.0000000000000000e+00  9.9999997743471569e-01 0.0000000000000000e+00 0.0000000000000000e+00  9.9999997743471569e-01 0.0000000000000000e+00 0.0000000000000000e+00  9.9999997743471569e-01 0.0000000000000000e+00 0.0000000000000000e+00  9.9999997743471569e-01 0.0000000000000000e+00 0.0000000000000000e+00  9.9999997743471569e-01 0.0000000000000000e+00 0.0000000000000000e+00  9.9999997743471569e-01 0.0000000000000000e+00 0.0000000000000000e+00  9.9999997743471569e-01 0.0000000000000000e+00 0.0000000000000000e+00  9.9999997743471569e-01 0.0000000000000000e+00 0.0000000000000000e+00  9.9999997743471569e-01 0.0000000000000000e+00 0.0000000000000000e+00  9.9999997743471569e-01 0.0000000000000000e+00 0.0000000000000000e+00  9.9999997743471569e-01 0.0000000000000000e+00 0.0000000000000000e+00  9.9999997743471569e-01 0.0000000000000000e+00 0.0000000000000000e+00  9.9999997743471569e-01 0.0000000000000000e+00 0.0000000000000000e+00  9.9999997743471569e-01 0.0000000000000000e+00 0.0000000000000000e+00  9.9999997743471569e-01 0.0000000000000000e+00 0.0000000000000000e+00  9.9999997743471569e-01 0.0000000000000000e+00 0.0000000000000000e+00  9.9999997743471569e-01 0.0000000000000000e+00 0.0000000000000000e+00  9.9999997743471569e-01 0.0000000000000000e+00 0.0000000000000000e+00  9.9999997743471569e-01 0.0000000000000000e+00 0.0000000000000000e+00  9.9999997743471569e-01 0.0000000000000000e+00 0.0000000000000000e+00  9.9999997743471569e-01 0.0000000000000000e+00 0.0000000000000000e+00  9.9999997743471569e-01 0.0000000000000000e+00 0.0000000000000000e+00  9.9999997743471569e-01 0.0000000000000000e+00 0.0000000000000000e+00  9.9999997743471569e-01 0.0000000000000000e+00 0.0000000000000000e+00  9.9999997743471569e-01 0.0000000000000000e+00 0.0000000000000000e+00  9.9999997743471569e-01 0.0000000000000000e+00 0.0000000000000000e+00  9.9999997743471569e-01 0.0000000000000000e+00 0.0000000000000000e+00  9.9999997743471569e-01 0.0000000000000000e+00 0.0000000000000000e+00  9.9999997743471569e-01 0.0000000000000000e+00 0.0000000000000000e+00  9.9999997743471569e-01 0.0000000000000000e+00 0.0000000000000000e+00  9.9999997743471569e-01 0.0000000000000000e+00 0.0000000000000000e+00  9.9999997743471569e-01 0.0000000000000000e+00 0.0000000000000000e+00  9.9999997743471569e-01 0.0000000000000000e+00 0.0000000000000000e+00  9.9999997743471569e-01 0.0000000000000000e+00 0.0000000000000000e+00  9.9999997743471569e-01 0.0000000000000000e+00 0.0000000000000000e+00  9.9999997743471569e-01 0.0000000000000000e+00 0.0000000000000000e+00  9.9999997743471569e-01 0.0000000000000000e+00 0.0000000000000000e+00  9.9999997743471569e-01 0.0000000000000000e+00 0.0000000000000000e+00  9.9999997743471569e-01 0.0000000000000000e+00 0.0000000000000000e+00  9.9999997743471569e-01 0.0000000000000000e+00 0.0000000000000000e+00  9.9999997743471569e-01 0.0000000000000000e+00 0.0000000000000000e+00  9.9999997743471569e-01 0.0000000000000000e+00 0.0000000000000000e+00  9.9999997743471569e-01 0.0000000000000000e+00 0.0000000000000000e+00  9.9999997743471569e-01 0.0000000000000000e+00 0.0000000000000000e+00  9.9999997743471569e-01 0.0000000000000000e+00 0.0000000000000000e+00  9.9999997743471569e-01 0.0000000000000000e+00 0.0000000000000000e+00  9.9999997743471569e-01 0.0000000000000000e+00 0.0000000000000000e+00  9.9999997743471569e-01 0.0000000000000000e+00 0.0000000000000000e+00  9.9999997743471569e-01 0.0000000000000000e+00 0.0000000000000000e+00  9.9999997743471569e-01 0.0000000000000000e+00 0.0000000000000000e+00  9.9999997743471569e-01 0.0000000000000000e+00 0.0000000000000000e+00  9.9999997743471569e-01 0.0000000000000000e+00 0.0000000000000000e+00  9.9999997743471569e-01 0.0000000000000000e+00 0.0000000000000000e+00  9.9999997743471569e-01 0.0000000000000000e+00 0.0000000000000000e+00  9.9999997743471569e-01 0.0000000000000000e+00 0.0000000000000000e+00  9.9999997743471569e-01 0.0000000000000000e+00 0.0000000000000000e+00  9.9999997743471569e-01 0.0000000000000000e+00 0.0000000000000000e+00  9.9999997743471569e-01 0.0000000000000000e+00 0.0000000000000000e+00  9.9999997743471569e-01 0.0000000000000000e+00 0.0000000000000000e+00  9.9999997743471569e-01 0.0000000000000000e+00 0.0000000000000000e+00  9.9999997743471569e-01 0.0000000000000000e+00 0.0000000000000000e+00  9.9999997743471569e-01 0.0000000000000000e+00 0.0000000000000000e+00  5.5305012978098655e-01 3.2791965405181915e-02 0.0000000000000000e+00  3.0015879488955177e-01 -1.2962005748840204e-02 0.0000000000000000e+00  3.0560650484706131e-01 6.0959124997124747e-02 0.0000000000000000e+00  2.5509472573291009e-01 -9.0803495201199916e-02 0.0000000000000000e+00  4.6670356043110645e-01 2.2047900306625465e-01 0.0000000000000000e+00  5.6856920259702071e-01 -1.7659858287528002e-01 0.0000000000000000e+00  3.8236726734037751e-01 -2.2075110927432653e-02 0.0000000000000000e+00  1.5712060027511843e-01 1.4096174731083164e-01 0.0000000000000000e+00  8.4785128916680275e-01 2.0019078828294658e-02 0.0000000000000000e+00  2.1924610911500404e-02 2.6408425960170134e-01 0.0000000000000000e+00  7.5560325702429321e-02 -1.3605018422188522e-01 0.0000000000000000e+00  2.7925781916483339e-01 -3.1257539859610922e-01 0.0000000000000000e+00  2.8953039354376553e-01 -1.6750312060088973e-04 0.0000000000000000e+00  -1.0465071279512481e-01 2.5518523366942092e-01 0.0000000000000000e+00  -3.0738948593514737e-01 -3.3722764814659539e-01 0.0000000000000000e+00  -5.1179149140828550e-01 -1.7734690138609141e-01 0.0000000000000000e+00  -3.6889422668298133e-01 4.3150656990964417e-02 0.0000000000000000e+00  3.7962055014784818e-01 1.6408595792428771e-01 0.0000000000000000e+00  -4.6490297407198933e-01 3.4477574679040729e-01 0.0000000000000000e+00  8.0498237332293410e-01 1.5164104607916137e-01 0.0000000000000000e+00  4.0184619255959886e-01 -1.8615552282023565e-01 0.0000000000000000e+00  8.3374230362488544e-01 -1.2366369865413152e-01 0.0000000000000000e+00  2.7974378602495947e-01 2.4450816344537919e-04 0.0000000000000000e+00  5.4052638368370176e-01 -4.4956024597992410e-02 0.0000000000000000e+00  2.2368139630600792e-01 -3.5001547492995089e-01 0.0000000000000000e+00  -5.1451012622439882e-02 -4.6180673003356748e-01 0.0000000000000000e+00  2.8628740808358349e-01 6.4885190880414464e-03 0.0000000000000000e+00  3.4200439910794822e-01 3.5384803307951246e-01 0.0000000000000000e+00  6.0937101905301938e-02 4.5702720640312527e-01 0.0000000000000000e+00  -4.2399314596016330e-01 -3.7402253143356939e-01 0.0000000000000000e+00  9.4081577183143195e-01 5.6102220087473544e-02 0.0000000000000000e+00  9.5947341545104037e-01 -1.4904844758659977e-02 0.0000000000000000e+00  8.8662834347084118e-01 1.3463349315211495e-01 0.0000000000000000e+00  6.6878635352125337e-01 9.1690095058579335e-02 0.0000000000000000e+00  8.9242906180924064e-01 -1.1926016249461865e-01 0.0000000000000000e+00  7.7235921480448466e-01 -1.2197798727171634e-01 0.0000000000000000e+00  3.0285252095091009e-01 -5.9074678555198698e-02 0.0000000000000000e+00  2.9173535451565868e-01 5.1414050667341789e-02 0.0000000000000000e+00  5.5223931783592473e-01 2.1070703138691357e-01 0.0000000000000000e+00  2.7956806529294392e-01 -1.4341615684064124e-03 0.0000000000000000e+00  -1.7113748099172771e-01 2.2378193007990027e-01 0.0000000000000000e+00  2.7922474399460967e-01 -2.2637969052096007e-04 0.0000000000000000e+00  5.8255593064405464e-01 -2.2923178667962954e-01 0.0000000000000000e+00  2.6488051709414351e-01 -1.7733090312538464e-02 0.0000000000000000e+00  -3.4303513972441035e-01 4.9883974952191285e-01 0.0000000000000000e+00  2.7771406712775892e-01 2.5620118476138111e-03 0.0000000000000000e+00  2.8093901334584770e-01 -3.8029927266111639e-03 0.0000000000000000e+00  1.5930619101259111e-01 1.9985461476371144e-01 0.0000000000000000e+00  1.8388259267732016e-01 -1.9052209049131041e-01 0.0000000000000000e+00  9.4686252935637660e-01 6.5727793564939324e-02 0.0000000000000000e+00  9.6122462917596130e-01 -5.0791391923559887e-02 0.0000000000000000e+00  -2.2139888690870690e-01 -5.8748327064159100e-01 0.0000000000000000e+00  4.8205517606487225e-01 -3.9645944104559272e-01 0.0000000000000000e+00  4.7553588750599701e-02 -1.3434204707008421e-01 0.0000000000000000e+00  -3.2601202931300061e-01 -4.3915825435655514e-01 0.0000000000000000e+00  2.7490926884569167e-01 -1.1405666296630534e-02 0.0000000000000000e+00  -1.2537875888140620e-01 5.7786937486307044e-01 0.0000000000000000e+00  6.2861553569790174e-01 -1.6593165048109586e-02 0.0000000000000000e+00  -1.8366518476357924e-01 2.9545013639710066e-01 0.0000000000000000e+00  3.2014212270892634e-01 1.0668183395948251e-02 0.0000000000000000e+00  2.7754203414301964e-01 3.6319005443231971e-04 0.0000000000000000e+00  2.6564857167617145e-01 1.7455713069562628e-02 0.0000000000000000e+00  2.9129837266673081e-01 -8.9764562078958258e-04 0.0000000000000000e+00  2.3224795622137692e-01 3.9502482333078182e-02 0.0000000000000000e+00  6.9791835910335520e-01 4.0433910286159627e-02 0.0000000000000000e+00  3.1346412647002031e-01 -4.7786792323255521e-02 0.0000000000000000e+00  -7.8604665777440602e-02 -2.2618991263910057e-01 0.0000000000000000e+00  1.7057704103193991e-01 -5.5464105218385573e-01 0.0000000000000000e+00  2.7013830752677953e-01 1.2405943881422975e-02 0.0000000000000000e+00  9.8244731664287510e-01 1.8587051685475434e-02 0.0000000000000000e+00  2.9698922148817275e-01 5.4527389108310920e-01 0.0000000000000000e+00  5.0588140967268125e-01 3.9118360522658507e-01 0.0000000000000000e+00  9.5329158532556391e-01 6.6779585038140118e-02 0.0000000000000000e+00  6.5594859472059086e-01 8.8087344179322388e-02 0.0000000000000000e+00  2.7946212147589122e-01 8.6230230245509107e-05 0.0000000000000000e+00  9.4699757149976427e-01 -6.8487751147672901e-02 0.0000000000000000e+00  -8.4143514379316164e-02 -2.3860784560792858e-01 0.0000000000000000e+00  2.7678985133843309e-01 6.6164866396494686e-04 0.0000000000000000e+00  9.8642014049355153e-01 -1.6312372417059955e-02 0.0000000000000000e+00  3.7888052033752173e-01 1.1452407489314765e-02 0.0000000000000000e+00  2.8126078387536174e-01 3.5150909023735699e-07 0.0000000000000000e+00  4.4795162684740658e-01 7.0476902527895680e-02 0.0000000000000000e+00  2.7051935431934454e-01 3.9529309530541758e-03 0.0000000000000000e+00  7.1254826986978814e-01 -4.5570757047739725e-02 0.0000000000000000e+00  2.9117854583340735e-01 2.0806880898944290e-02 0.0000000000000000e+00  -1.7315500948481707e-01 2.2812718580007046e-01 0.0000000000000000e+00  3.2183635706345892e-01 6.2638924339978960e-02 0.0000000000000000e+00  7.9197777696059968e-01 2.7485482987392187e-02 0.0000000000000000e+00  -6.1487924057130654e-02 -6.4692979299122344e-01 0.0000000000000000e+00  2.7516166578017581e-01 -3.6477272618482356e-04 0.0000000000000000e+00  -6.5283717139797171e-01 2.5355529543968020e-01 0.0000000000000000e+00  1.8652276679265606e-01 -3.9146851260610058e-02 0.0000000000000000e+00  6.8805089522515550e-01 2.7629218909508252e-01 0.0000000000000000e+00  -2.7506412499065147e-01 5.5067827144495596e-01 0.0000000000000000e+00  -2.8367923840466186e-01 4.1392134752377147e-01 0.0000000000000000e+00  4.1508540718601644e-01 -1.0324602708511199e-01 0.0000000000000000e+00  2.9687586597023191e-01 3.3334819881314383e-03 0.0000000000000000e+00  7.1498663577100752e-01 -1.7553830906424575e-01 0.0000000000000000e+00  4.9635893426863731e-01 -1.3531890051531498e-01 0.0000000000000000e+00  3.5009286450808702e-01 5.2037553646698445e-02 0.0000000000000000e+00  2.7522190262217039e-01 1.1296918130679649e-01 0.0000000000000000e+00  7.3538999705011676e-01 1.2929903305083537e-01 0.0000000000000000e+00  1.9513123717008254e-01 -1.4973634340761630e-01 0.0000000000000000e+00  2.7088285002736534e-01 -2.3052917125738820e-03 0.0000000000000000e+00  2.7401792770939570e-01 -6.5525940432319509e-05 0.0000000000000000e+00  5.7172870888668410e-02 6.4488281672077929e-01 0.0000000000000000e+00  1.9812737822226859e-01 -7.2512393031562400e-02 0.0000000000000000e+00  -1.5462395928727146e-01 -3.2982602621824392e-01 0.0000000000000000e+00  7.8461191986091994e-01 -8.5291373441374038e-02 0.0000000000000000e+00  2.6301763649871657e-01 -5.1652992746882139e-03 0.0000000000000000e+00  1.9056585819275670e-01 7.3347837406234295e-02 0.0000000000000000e+00  9.5794953941942629e-01 -5.5001944124563322e-02 0.0000000000000000e+00  4.1241365660705076e-01 2.9471572816534131e-01 0.0000000000000000e+00  2.7977009996359703e-01 -3.5053299624404741e-04 0.0000000000000000e+00  2.3129422798617283e-01 -3.0636853808029697e-02 0.0000000000000000e+00  9.6033221374863087e-01 5.1702965641260382e-02 0.0000000000000000e+00  9.7585502959808412e-01 3.6123190012121519e-02 0.0000000000000000e+00  6.0983449036656028e-02 2.1516856714959451e-01 0.0000000000000000e+00  3.4578129665280388e-01 1.2863266531268511e-01 0.0000000000000000e+00  5.4674961852888770e-01 -2.4571854752493372e-01 0.0000000000000000e+00  2.8341647355580152e-01 -1.2710639810813516e-02 0.0000000000000000e+00  9.6852716080119217e-01 -4.4766643944299120e-02 0.0000000000000000e+00  3.0741171572366965e-01 -1.5679376406502740e-02 0.0000000000000000e+00  2.4984483058608967e-01 -2.2986491167739750e-02 0.0000000000000000e+00  4.6015620132979618e-01 -3.5888393987599125e-02 0.0000000000000000e+00  -1.9422133226823038e-01 -3.0543189927752135e-01 0.0000000000000000e+00  -2.9796292693449472e-01 -4.8627760590596175e-01 0.0000000000000000e+00  1.1450729186014490e-01 3.0760658160663177e-02 0.0000000000000000e+00  3.2481644980615210e-01 -9.6350225641840204e-02 0.0000000000000000e+00  2.8700499519764833e-01 7.4504607283117227e-04 0.0000000000000000e+00  -5.8206489064629841e-01 -1.1210672367901066e-01 0.0000000000000000e+00  2.8195422254606939e-01 -4.1403504094045017e-03 0.0000000000000000e+00  2.8853536678895381e-01 -3.2001188563820511e-02 0.0000000000000000e+00  9.8894740792494695e-01 -3.5478647401137578e-04 0.0000000000000000e+00  1.3918919074191297e-01 1.1700136512201578e-01 0.0000000000000000e+00  8.8327252167787740e-01 -5.5588802406273466e-02 0.0000000000000000e+00  2.9079448112267403e-01 1.5263116233431710e-02 0.0000000000000000e+00  9.0586409487941777e-01 3.6717039526395462e-02 0.0000000000000000e+00  5.6678182332291452e-02 -4.7652824930295525e-02 0.0000000000000000e+00  2.4017190364805746e-01 2.3821772510362726e-02 0.0000000000000000e+00  3.3744730919764432e-01 -5.4598732129674754e-01 0.0000000000000000e+00  6.3439774278353456e-01 -4.0469012937800031e-01 0.0000000000000000e+00  9.1790666784610175e-01 -6.3373780423490192e-02 0.0000000000000000e+00  2.7039257117928939e-01 2.0195081994243003e-01 0.0000000000000000e+00  2.7124105952546262e-01 -1.0960120707577212e-03 0.0000000000000000e+00  1.8337856060097560e-01 -2.1442671679738892e-01 0.0000000000000000e+00  -7.3115568987596080e-01 3.9093656197123162e-02 0.0000000000000000e+00  2.8143951268952688e-01 -2.0014086177772378e-01 0.0000000000000000e+00  -4.7688913307433362e-01 -1.6757119275363772e-01 0.0000000000000000e+00  3.3415303305133331e-01 -1.3293064319451155e-02 0.0000000000000000e+00  9.5231565342486102e-01 4.8165437335674251e-02 0.0000000000000000e+00  8.7313938741542052e-01 9.0038539232012438e-02 0.0000000000000000e+00  5.7112288723708082e-01 3.9669782715383972e-01 0.0000000000000000e+00  6.6380033421841522e-01 2.5695297461374217e-01 0.0000000000000000e+00  9.8893380446494827e-01 -2.010727047639011