<?xml version="1.0"?>
<VTKFile type="UnstructuredGrid"  version="0.1"  >
<UnstructuredGrid>
<Piece  NumberOfPoints="406" NumberOfCells="722">
<Points>
<DataArray  type="Float64"  NumberOfComponents="3"  format="ascii">-6 -2 0  -6 2 0  6 2 0  6 -2 0  -2.8 0 0  -1.2 0 0  -5.500000000001853 -2 0  -5.000000000003705 -2 0  -4.500000000005556 -2 0  -4.000000000007409 -2 0  -3.50000000000926 -2 0  -3.000000000011112 -2 0  -2.500000000012963 -2 0  -2.000000000014814 -2 0  -1.500000000016665 -2 0  -1.000000000018516 -2 0  -0.5000000000203677 -2 0  -2.204547655537681e-11 -2 0  0.4999999999796305 -2 0  0.9999999999814779 -2 0  1.499999999983327 -2 0  1.999999999985175 -2 0  2.499999999987029 -2 0  2.999999999988882 -2 0  3.499999999990735 -2 0  3.999999999992589 -2 0  4.49999999999444 -2 0  4.999999999996293 -2 0  5.499999999998147 -2 0  6 -1.500000000001387 0  6 -1.000000000002774 0  6 -0.5000000000041616 0  6 -5.505595979116151e-12 0  6 0.4999999999958384 0  6 0.9999999999972258 0  6 1.499999999998613 0  5.500000000001853 2 0  5.000000000003705 2 0  4.500000000005556 2 0  4.000000000007409 2 0  3.50000000000926 2 0  3.000000000011112 2 0  2.500000000012963 2 0  2.000000000014814 2 0  1.500000000016665 2 0  1.000000000018516 2 0  0.5000000000203677 2 0  2.204547655537681e-11 2 0  -0.4999999999796305 2 0  -0.9999999999814779 2 0  -1.499999999983327 2 0  -1.999999999985175 2 0  -2.499999999987029 2 0  -2.999999999988882 2 0  -3.499999999990735 2 0  -3.999999999992589 2 0  -4.49999999999444 2 0  -4.999999999996293 2 0  -5.499999999998147 2 0  -6 1.500000000001387 0  -6 1.000000000002774 0  -6 0.5000000000041616 0  -6 5.505595979116151e-12 0  -6 -0.4999999999958384 0  -6 -0.9999999999972258 0  -6 -1.499999999998613 0  -2.776753453941174 -0.1914525314286965 0  -2.708364820523325 -0.3717785376335722 0  -2.598808598538216 -0.5304981265911284 0  -2.454451797386757 -0.65838709271366 0  -2.283683909636528 -0.748012994147384 0  -2.096429344207466 -0.7941670992780535 0  -1.903570655798842 -0.7941670992788195 0  -1.716316090368095 -0.7480129941491368 0  -1.545548202616307 -0.6583870927157747 0  -1.401191401463757 -0.530498126593356 0  -1.291635179477527 -0.371778537635196 0  -1.223246546059047 -0.1914525314295925 0  -1.223246546058803 0.1914525314286035 0  -1.291635179476594 0.3717785376334188 0  -1.401191401461634 0.5304981265909601 0  -1.545548202612898 0.6583870927134221 0  -1.716316090363093 0.7480129941472402 0  -1.903570655792394 0.7941670992780367 0  -2.096429344201276 0.7941670992788055 0  -2.283683909631911 0.7480129941491347 0  -2.454451797383697 0.6583870927157729 0  -2.598808598536385 0.530498126593196 0  -2.70836482052258 0.3717785376349917 0  -2.776753453940975 0.1914525314295042 0  0.4588466633941945 0.2704149791022056 0  -4.424312812173863 0.2760319703992994 0  -3.803977598762586 -0.6841584599595646 0  -0.1330968762779425 -0.6798763971615133 0  2.451109587541276 3.169800318630399e-13 0  -3.563610936250569 0.5929994091167295 0  4.204753319582647 0.2820669554523581 0  -0.4390897559348154 0.6178095532273566 0  -3.041446812595122 1.175550440315544 0  -0.9622132806516797 1.132103015222783 0  1.069493318942931 -0.773608156980569 0  -4.924330687080279 -0.7127064269610045 0  -3.024693497948964 -1.195179289656404 0  -0.9648749555625579 -1.256854520022574 0  -3.443624282349383 -0.2044158249759613 0  -0.5611500783757608 -0.1747080110423833 0  1.60270880116926 0.7487034276124258 0  3.488352576142236 -0.8228939860777884 0  4.816375011670135 -0.8163750116689444 0  3.243628045085357 0.8578172796997985 0  -4.228632884234073 1.228069101636678 0  -2.365220384435482 -1.356128547810356 0  -1.637465979486354 1.3571687267915 0  -1.642380978561139 -1.359365080147485 0  -2.362988915989869 1.356737096243695 0  -5.134120367293631 0.8356299802910161 0  2.077496878467794 -0.9514080034522553 0  4.960859291178299 0.9608592911785537 0  0.3293120056474302 1.148965409695154 0  -5.157560560414062 0.09447106214747865 0  -3.14779387667392 -0.6330563038825547 0  -3.148134455585257 0.4354299640428653 0  -0.8464439673630421 0.4159277415926296 0  -0.9918125625721008 -0.7191748422889824 0  -4.355349213295776 -1.234510499778242 0  1.582074659164868 -0.06850205959954866 0  2.400584045214166 1.204278622181321 0  5.102831660739063 0.03453404176596848 0  4.083259768981113 1.154272958349666 0  -3.992394834362243 -0.1621022234411988 0  0.4290302718942113 -1.225465289645401 0  -3.681487986394671 -1.310544246656267 0  -3.640289698916164 1.187023654838123 0  0.468851680921228 -0.447055967952278 0  3.315209904217932 0.05667935655546536 0  -2.541160649745046 -1.046980928586996 0  -1.45196684542695 1.044189935346116 0  -2.000844595891861 -1.207983108473125 0  -1.453092202970521 -1.061139264918894 0  -2.000050543938391 1.207806685704176 0  -2.548033154566413 1.04418993534851 0  4.13054585796652 -1.232871249381608 0  -0.3301617095463629 1.221692405319566 0  -0.2880491989587189 -1.359626628407983 0  -0.0758941643813178 0.132275811829787 0  2.826389221580753 -1.233168480096227 0  -2.922070412327736 0.7575752117792038 0  1.003070890178416 1.271347915034201 0  -5.319521816151902 -1.310543894393663 0  -1.070407062963812 0.7877698545098388 0  -4.562499863038985 -0.2302396981426722 0  -3.164226661545047 0.07179577787350272 0  -0.9091377812900333 0.132454654016971 0  4.116029045943655 -0.4851826871817362 0  5.316659189209927 -1.316659189208741 0  -0.9498828454673396 -0.4149758979014553 0  -4.037769805263969 0.6896174350675625 0  1.431664772855882 -1.327784137638992 0  -3.646693623568034 0.1600006358878044 0  -2.878371345483476 -0.7910345833001061 0  1.062603041385242 0.2894765870627741 0  -0.547955103783681 0.1635272504420374 0  -4.804809838419659 1.41016301576038 0  -3.042895319571192 -0.3694931303482478 0  -4.59252578392403 0.792267765362792 0  2.823271260730033 -0.5472430318427347 0  -4.28575390662405 -0.7521491832384866 0  -0.5524005545121191 -0.9037367558558163 0  1.815219025072439 1.388812135783969 0  -1.288398729718543 -0.8178399475601057 0  -5.424388493366639 1.35375165044146 0  -2.256991952837567 -1.049538527273222 0  -1.739586738723494 -1.052327527873255 0  -1.738827359988536 1.050180627239116 0  -2.257795730428802 1.049701225145305 0  -0.62222340523776 -0.5483611729237363 0  2.065188519029698 0.5424877383589943 0  0.1055865106318892 0.7347782870471022 0  1.013082573993895 -0.2061877611231605 0  -5.428323520618333 -0.4386412085227075 0  5.374041502384443 -0.5304401760993408 0  3.435185060219232 -1.377658617395091 0  -3.302377238490527 0.8841390072780534 0  -0.9902123298072768 -0.124175295282554 0  0.7186958547669859 0.8724503317343631 0  2.941237214953417 1.390391532351976 0  4.708037787864423 -1.340276032051348 0  5.395029680982659 1.395029680983341 0  3.591022587550188 1.348260650408605 0  2.759385971589342 0.4857447325740718 0  -0.6832705231418494 0.8879387563573758 0  5.437781298507145 0.5981501503262471 0  -2.698603003287285 1.617130043745112 0  -3.463358189947519 -1.013588318179017 0  1.710866040171871 -0.6978716337870808 0  3.642182982762737 0.4555704362064124 0  -2.699802128031161 -1.618310703146212 0  -1.3020054856637 1.619819977935582 0  -2.000000000004996 -1.566396763829867 0  -1.999999999994794 1.566396763830688 0  -1.247812462071684 -1.595232739507426 0  4.59429106759859 1.420052135572917 0  0.9448382581152466 -1.440259145469251 0  -0.116376100998861 -0.2606209011258676 0  -4.774521510507792 0.4245390872783272 0  -2.983910172370106 -0.1208000607277856 0  -3.353983741142061 1.576062863985777 0  -5.473352579109997 0.4917619255280954 0  -4.828650470275986 -1.493148538517745 0  4.639973657165532 -0.2833178611094909 0  -2.660279445404468 0.7699932347178977 0  -1.335045190775955 0.7744876666923373 0  -3.395669172689978 0.2584951122361346 0  2.279110606119369 -1.465899541383697 0  4.734317729212562 0.4520963557364723 0  -0.6334913028224612 1.584213953723378 0  2.121854101359879 -0.4289611127787379 0  -3.474459720833238 -0.4977581316675216 0  -1.066539898844178 0.3411379476537602 0  -3.361849707555382 -1.611428512420182 0  -4.099039818938317 0.3306400369415774 0  -2.935324777364672 0.354721898811665 0  -3.973578595052027 1.482940358734671 0  3.784450148635689 -0.0702780807301525 0  -1.191348122671212 -0.5614501189722798 0  -2.838672605956353 -0.5493179047027598 0  -1.184983441257359 0.5617520886612424 0  -2.811184099847449 0.5574240755049175 0  0.2702752249355158 -0.8003643570420809 0  -0.6945947797857237 -1.593893965175195 0  0.001175881878679056 1.504521009023778 0  0.6072931735145096 1.501814722697789 0  -3.991896293645949 -1.047264188412552 0  -3.734097395159253 -0.3261671578666079 0  -5.539652387691843 -0.8857154182585802 0  -4.395061924111849 1.563293728588296 0  0.2258327611651416 -0.08745142624872881 0  -3.774816634825771 0.8676973328379478 0  2.208484493569073 1.6256686312487 0  0.1309939514660535 -1.566169703482512 0  -5.551414360955331 0.9459842275970113 0  -4.04734138658365 -1.51163984963472 0  -4.947145019546805 -0.3299925153029702 0  4.320410447198621 0.6970857582435144 0  -4.707557346727139 -1.000565649857444 0  1.353711468973986 1.582551234446199 0  1.674156483558973 0.3266252271732694 0  -4.039105552973997 -0.4537604746027087 0  0.01051727619263377 -1.088858357362194 0  -0.2234942609176301 0.8619127912343982 0  -2.95903482691863 0.1219373374385197 0  -4.682467695920681 0.0804575682243254 0  5.535750224195656 -0.1525732643419722 0  -4.290083947414376 -0.0005258314026840717 0  1.136102562417988 0.7655312464039168 0  -2.816589394567214 0.9927597419785312 0  -2.645374456162409 -0.7645902451387543 0  4.18414576655837 1.624276131878667 0  0.7127337088822223 -0.9006358935856398 0  1.972418102153911 0.9727040774616764 0  -2.42199174813501 0.8591219219254587 0  -2.418604734200992 -0.8552987735117754 0  -5.573597213364169 -0.03612430678117123 0  2.024792870869397 0.05574071630590883 0  -1.578875191508968 0.861424470724936 0  -1.54706008231699 -0.8630049102346303 0  3.848662181064435 -1.569601980075533 0  -2.000000000003871 -0.9746445732264465 0  -1.99999999
[...]
<PointData  Vectors="f_22"> 
<DataArray  type="Float64"  Name="f_22"  NumberOfComponents="3" format="ascii">0.0000000000000000e+00 0.0000000000000000e+00 0.0000000000000000e+00  0.0000000000000000e+00 0.0000000000000000e+00 0.0000000000000000e+00  0.0000000000000000e+00 0.0000000000000000e+00 0.0000000000000000e+00  0.0000000000000000e+00 0.0000000000000000e+00 0.0000000000000000e+00  9.9999995775081052e-01 0.0000000000000000e+00 0.0000000000000000e+00  9.9999995775081052e-01 0.0000000000000000e+00 0.0000000000000000e+00  0.0000000000000000e+00 0.0000000000000000e+00 0.0000000000000000e+00  0.0000000000000000e+00 0.0000000000000000e+00 0.0000000000000000e+00  0.0000000000000000e+00 0.0000000000000000e+00 0.0000000000000000e+00  0.0000000000000000e+00 0.0000000000000000e+00 0.0000000000000000e+00  0.0000000000000000e+00 0.0000000000000000e+00 0.0000000000000000e+00  0.0000000000000000e+00 0.0000000000000000e+00 0.0000000000000000e+00  0.0000000000000000e+00 0.0000000000000000e+00 0.0000000000000000e+00  0.0000000000000000e+00 0.0000000000000000e+00 0.0000000000000000e+00  0.0000000000000000e+00 0.0000000000000000e+00 0.0000000000000000e+00  0.0000000000000000e+00 0.0000000000000000e+00 0.0000000000000000e+00  0.0000000000000000e+00 0.0000000000000000e+00 0.0000000000000000e+00  0.0000000000000000e+00 0.0000000000000000e+00 0.0000000000000000e+00  0.0000000000000000e+00 0.0000000000000000e+00 0.0000000000000000e+00  0.0000000000000000e+00 0.0000000000000000e+00 0.0000000000000000e+00  0.0000000000000000e+00 0.0000000000000000e+00 0.0000000000000000e+00  0.0000000000000000e+00 0.0000000000000000e+00 0.0000000000000000e+00  0.0000000000000000e+00 0.0000000000000000e+00 0.0000000000000000e+00  0.0000000000000000e+00 0.0000000000000000e+00 0.0000000000000000e+00  0.0000000000000000e+00 0.0000000000000000e+00 0.0000000000000000e+00  0.0000000000000000e+00 0.0000000000000000e+00 0.0000000000000000e+00  0.0000000000000000e+00 0.0000000000000000e+00 0.0000000000000000e+00  0.0000000000000000e+00 0.0000000000000000e+00 0.0000000000000000e+00  0.0000000000000000e+00 0.0000000000000000e+00 0.0000000000000000e+00  3.3453179717008513e-01 -3.3153238060025834e-04 0.0000000000000000e+00  5.8827289845050157e-01 -5.8702280846686093e-04 0.0000000000000000e+00  7.3740399985686322e-01 -5.2560555747948668e-04 0.0000000000000000e+00  7.8685213338580362e-01 -2.3289406280922469e-05 0.0000000000000000e+00  7.3735354017276911e-01 4.7640745110385022e-04 0.0000000000000000e+00  5.8824468454232726e-01 5.8905679997606501e-04 0.0000000000000000e+00  3.3459235065984072e-01 2.8722648696622886e-04 0.0000000000000000e+00  0.0000000000000000e+00 0.0000000000000000e+00 0.0000000000000000e+00  0.0000000000000000e+00 0.0000000000000000e+00 0.0000000000000000e+00  0.0000000000000000e+00 0.0000000000000000e+00 0.0000000000000000e+00  0.0000000000000000e+00 0.0000000000000000e+00 0.0000000000000000e+00  0.0000000000000000e+00 0.0000000000000000e+00 0.0000000000000000e+00  0.0000000000000000e+00 0.0000000000000000e+00 0.0000000000000000e+00  0.0000000000000000e+00 0.0000000000000000e+00 0.0000000000000000e+00  0.0000000000000000e+00 0.0000000000000000e+00 0.0000000000000000e+00  0.0000000000000000e+00 0.0000000000000000e+00 0.0000000000000000e+00  0.0000000000000000e+00 0.0000000000000000e+00 0.0000000000000000e+00  0.0000000000000000e+00 0.0000000000000000e+00 0.0000000000000000e+00  0.0000000000000000e+00 0.0000000000000000e+00 0.0000000000000000e+00  0.0000000000000000e+00 0.0000000000000000e+00 0.0000000000000000e+00  0.0000000000000000e+00 0.0000000000000000e+00 0.0000000000000000e+00  0.0000000000000000e+00 0.0000000000000000e+00 0.0000000000000000e+00  0.0000000000000000e+00 0.0000000000000000e+00 0.0000000000000000e+00  0.0000000000000000e+00 0.0000000000000000e+00 0.0000000000000000e+00  0.0000000000000000e+00 0.0000000000000000e+00 0.0000000000000000e+00  0.0000000000000000e+00 0.0000000000000000e+00 0.0000000000000000e+00  0.0000000000000000e+00 0.0000000000000000e+00 0.0000000000000000e+00  0.0000000000000000e+00 0.0000000000000000e+00 0.0000000000000000e+00  0.0000000000000000e+00 0.0000000000000000e+00 0.0000000000000000e+00  0.0000000000000000e+00 0.0000000000000000e+00 0.0000000000000000e+00  3.3330868398941510e-01 -5.9956579151624885e-04 0.0000000000000000e+00  5.8772315342599568e-01 -1.0083169738498447e-03 0.0000000000000000e+00  7.3810503276567863e-01 -8.1073120033069927e-04 0.0000000000000000e+00  7.8855000437803580e-01 -8.7749002799351205e-06 0.0000000000000000e+00  7.3878978131984341e-01 9.3205325957402445e-04 0.0000000000000000e+00  5.8803882695763476e-01 1.0729836641086914e-03 0.0000000000000000e+00  3.3331892370638594e-01 6.4582967803184432e-04 0.0000000000000000e+00  9.9999995775081052e-01 0.0000000000000000e+00 0.0000000000000000e+00  9.9999995775081052e-01 0.0000000000000000e+00 0.0000000000000000e+00  9.9999995775081052e-01 0.0000000000000000e+00 0.0000000000000000e+00  9.9999995775081052e-01 0.0000000000000000e+00 0.0000000000000000e+00  9.9999995775081052e-01 0.0000000000000000e+00 0.0000000000000000e+00  9.9999995775081052e-01 0.0000000000000000e+00 0.0000000000000000e+00  9.9999995775081052e-01 0.0000000000000000e+00 0.0000000000000000e+00  9.9999995775081052e-01 0.0000000000000000e+00 0.0000000000000000e+00  9.9999995775081052e-01 0.0000000000000000e+00 0.0000000000000000e+00  9.9999995775081052e-01 0.0000000000000000e+00 0.0000000000000000e+00  9.9999995775081052e-01 0.0000000000000000e+00 0.0000000000000000e+00  9.9999995775081052e-01 0.0000000000000000e+00 0.0000000000000000e+00  9.9999995775081052e-01 0.0000000000000000e+00 0.0000000000000000e+00  9.9999995775081052e-01 0.0000000000000000e+00 0.0000000000000000e+00  9.9999995775081052e-01 0.0000000000000000e+00 0.0000000000000000e+00  9.9999995775081052e-01 0.0000000000000000e+00 0.0000000000000000e+00  9.9999995775081052e-01 0.0000000000000000e+00 0.0000000000000000e+00  9.9999995775081052e-01 0.0000000000000000e+00 0.0000000000000000e+00  9.9999995775081052e-01 0.0000000000000000e+00 0.0000000000000000e+00  9.9999995775081052e-01 0.0000000000000000e+00 0.0000000000000000e+00  9.9999995775081052e-01 0.0000000000000000e+00 0.0000000000000000e+00  9.9999995775081052e-01 0.0000000000000000e+00 0.0000000000000000e+00  9.9999995775081052e-01 0.0000000000000000e+00 0.0000000000000000e+00  9.9999995775081052e-01 0.0000000000000000e+00 0.0000000000000000e+00  8.5411597864101207e-01 1.6788162658644169e-02 0.0000000000000000e+00  7.8278561250651546e-01 -5.7670978919942741e-03 0.0000000000000000e+00  7.0478950001343621e-01 3.4187792344785063e-02 0.0000000000000000e+00  7.4755255970339884e-01 -5.2174606993563105e-02 0.0000000000000000e+00  8.0613951574713216e-01 1.6972641378115843e-05 0.0000000000000000e+00  7.4173581773330366e-01 -4.9969971059980800e-02 0.0000000000000000e+00  7.7435344049134225e-01 1.0718400639077570e-03 0.0000000000000000e+00  8.0099836787370093e-01 5.9083675169137900e-02 0.0000000000000000e+00  4.3270258634395437e-01 -9.7794313165829524e-02 0.0000000000000000e+00  4.2134357251425975e-01 9.8781908531645174e-02 0.0000000000000000e+00  6.7197323782663498e-01 -2.5183848291723921e-02 0.0000000000000000e+00  6.8793111629634185e-01 4.5942837748199133e-03 0.0000000000000000e+00  4.1830166017054599e-01 9.7209718539106621e-02 0.0000000000000000e+00  3.0838900422696081e-01 -8.5920298855131180e-02 0.0000000000000000e+00  8.4607946903583386e-01 2.7109839171516180e-02 0.0000000000000000e+00  9.4929785850006776e-01 -1.6251389909851130e-02 0.0000000000000000e+00  6.7898100746891932e-01 1.6213348446647277e-02 0.0000000000000000e+00  6.5205559443761751e-01 -3.4360821970112598e-03 0.0000000000000000e+00  6.5471271515588403e-01 -1.2202819774648683e-03 0.0000000000000000e+00  6.3963111259804473e-01 4.1695792193473568e-03 0.0000000000000000e+00  4.7559858124203575e-01 -1.2810466194251979e-02 0.0000000000000000e+00  1.7543329451971418e-01 1.0181523805609749e-01 0.0000000000000000e+00  1.3127061443984908e-01 2.8353816675096972e-02 0.0000000000000000e+00  1.2912365061068676e-01 -2.7208913833359612e-02 0.0000000000000000e+00  1.7451703746038569e-01 -1.0160994567914088e-01 0.0000000000000000e+00  6.4855686690494607e-01 -3.1358061564327744e-03 0.0000000000000000e+00  5.9997513673226632e-01 -1.0527451907642763e-02 0.0000000000000000e+00  6.0323555822823482e-01 1.0349096816324635e-03 0.0000000000000000e+00  4.7144904814245608e-01 3.9936354209057882e-02 0.0000000000000000e+00  7.8893913808015503e-01 -4.1770155676376164e-04 0.0000000000000000e+00  7.4647075718084877e-01 1.0782435354772223e-01 0.0000000000000000e+00  8.3064833762206802e-01 -8.8202983326463494e-02 0.0000000000000000e+00  9.3310384945011937e-01 4.1593786044163528e-02 0.0000000000000000e+00  7.9975281784774244e-01 -8.5469643725281444e-02 0.0000000000000000e+00  4.7459987221397054e-01 1.0244688375267388e-02 0.0000000000000000e+00  8.2495588656755148e-01 -2.1575460525385219e-03 0.0000000000000000e+00  4.8640741529376125e-01 6.1681309728949278e-03 0.0000000000000000e+00  7.8789477549307141e-01 5.3373747051233034e-05 0.0000000000000000e+00  5.1926155019021136e-01 1.6460485525689743e-03 0.0000000000000000e+00  8.0775846256697714e-01 7.9039128532342549e-03 0.0000000000000000e+00  4.2992397214677847e-01 -3.3800453192014031e-02 0.0000000000000000e+00  4.1326410386830981e-01 2.8745709291325930e-02 0.0000000000000000e+00  4.7913368964209074e-01 -3.6694649864174290e-02 0.0000000000000000e+00  8.0989999283820890e-01 -2.6476736361887070e-02 0.0000000000000000e+00  7.9528626449871487e-01 4.7009604360483646e-04 0.0000000000000000e+00  4.2816472899700297e-01 1.7692224213971491e-01 0.0000000000000000e+00  4.8211175291893232e-01 9.2660444012458792e-02 0.0000000000000000e+00  2.3603344034613921e-01 5.1964702468468189e-02 0.0000000000000000e+00  4.6097786562065174e-01 -9.1408561998333582e-02 0.0000000000000000e+00  2.3615729883175823e-01 -5.1710863349505191e-02 0.0000000000000000e+00  4.3199394778049460e-01 -1.7704970650585261e-01 0.0000000000000000e+00  4.8106134227016628e-01 -1.4094777301688383e-03 0.0000000000000000e+00  3.9274467965976056e-01 6.2312010548425958e-02 0.0000000000000000e+00  3.0096450323845786e-01 -4.9336916441667301e-02 0.0000000000000000e+00  9.1119910766154988e-01 1.0391006515059410e-02 0.0000000000000000e+00  4.7531997718834829e-01 -4.1431195038628488e-03 0.0000000000000000e+00  6.8310439885090879e-01 -1.5807097168267986e-01 0.0000000000000000e+00  4.2520623059759399e-01 1.9394260988739882e-02 0.0000000000000000e+00  4.4135950503720012e-01 1.6205554490923107e-03 0.0000000000000000e+00  7.5442294257476117e-01 9.4429560667504048e-02 0.0000000000000000e+00  7.8558727862033917e-01 3.8123438820769932e-03 0.0000000000000000e+00  9.0809918838992421e-01 -1.6135799716068478e-02 0.0000000000000000e+00  9.8516499549932657e-01 9.5836978839496344e-03 0.0000000000000000e+00  7.4254400408975385e-01 -1.7548047582590339e-03 0.0000000000000000e+00  4.3953262163708828e-01 -5.4347961862071144e-04 0.0000000000000000e+00  9.4767707864494310e-01 -3.8229157392995539e-02 0.0000000000000000e+00  6.9960198809988905e-01 -2.2443485074625187e-02 0.0000000000000000e+00  4.0593011806034862e-01 -1.1747676019324168e-02 0.0000000000000000e+00  8.3054547491878594e-01 -1.4493622710518862e-02 0.0000000000000000e+00  6.6028071279994338e-01 1.6650769087801154e-01 0.0000000000000000e+00  8.2055062138558044e-01 1.3008925511639586e-02 0.0000000000000000e+00  9.4942828937146939e-01 1.5105569759556989e-02 0.0000000000000000e+00  3.8310531993610725e-01 -3.3253835833895718e-03 0.0000000000000000e+00  8.7214189702865585e-01 9.2809024788193459e-02 0.0000000000000000e+00  6.6351719679866528e-01 -8.5086055068798391e-03 0.0000000000000000e+00  7.3356739899954870e-01 -5.2946024334881731e-03 0.0000000000000000e+00  6.7778468380729140e-01 1.4877440417077215e-02 0.0000000000000000e+00  6.2515095104347940e-01 -8.1561008717763450e-02 0.0000000000000000e+00  3.7972043344607048e-01 7.2134188693981985e-03 0.0000000000000000e+00  7.5574471858055425e-01 -9.3428035270196649e-02 0.0000000000000000e+00  4.1787719708609611e-01 -1.2457094197458570e-03 0.0000000000000000e+00  3.9740668053566947e-01 1.3242852817401815e-01 0.0000000000000000e+00  4.4546368082766641e-01 -3.9814604400536587e-02 0.0000000000000000e+00  4.4864899916360318e-01 4.0240020401320582e-02 0.0000000000000000e+00  3.9714216469795072e-01 -1.3266039769814181e-01 0.0000000000000000e+00  8.5320172297299213e-01 -5.8125935788076358e-02 0.0000000000000000e+00  7.4040588128551266e-01 9.7063850154714779e-03 0.0000000000000000e+00  7.0813816649148920e-01 4.7051704856548762e-02 0.0000000000000000e+00  8.3551920843549798e-01 -9.8431113368332001e-03 0.0000000000000000e+00  7.5078903706578437e-01 1.2966706799748876e-03 0.0000000000000000e+00  7.3155935887233703e-01 -7.2881450078981114e-04 0.0000000000000000e+00  4.0177299618577639e-01 -1.8413226071657617e-03 0.0000000000000000e+00  6.2162919153916629e-01 -8.3930487414375157e-02 0.0000000000000000e+00  9.9124999972259120e-01 -7.1327206339729258e-03 0.0000000000000000e+00  6.2860001785373609e-01 3.3254317985739794e-02 0.0000000000000000e+00  3.9152993789783058e-01 2.6763840916715883e-03 0.0000000000000000e+00  4.2622977368854559e-01 -6.9261805889390808e-04 0.0000000000000000e+00  3.9641404437129746e-01 4.7200180581495350e-04 0.0000000000000000e+00  4.1856260687033964e-01 1.7113818177407680e-03 0.0000000000000000e+00  7.4808955208456718e-01 5.2674269234905778e-03 0.0000000000000000e+00  6.4138382247773229e-01 8.8745960453210648e-02 0.0000000000000000e+00  7.1626220537110052e-01 7.2380397441972348e-04 0.0000000000000000e+00  1.1633035773162802e-01 -4.3643251127338245e-02 0.0000000000000000e+00  5.6113242689871268e-01 5.9863314282214364e-02 0.0000000000000000e+00  6.9660335347139568e-01 -1.4617797077126717e-02 0.0000000000000000e+00  7.4972330005757126e-01 2.4618719586756693e-03 0.0000000000000000e+00  1.1603532675411263e-01 4.3351963391261530e-02 0.0000000000000000e+00  1.4552756256631431e-02 2.8836290753506327e-02 0.0000000000000000e+00  9.9192082792592812e-03 2.8658501512608483e-02 0.0000000000000000e+00  9.8877593159387121e-03 -2.8623091398109913e-02 0.0000000000000000e+00  3.3345529309740364e-02 -3.3628725163957152e-02 0.0000000000000000e+00  3.8076862913843756e-01 5.9968295560495957e-04 0.0000000000000000e+00  3.2717822353006343e-01 -1.4081293154239017e-02 0.0000000000000000e+00  8.9585952008366765e-01 -2.0854788333047131e-02 0.0000000000000000e+00  7.5612086587841487e-01 -4.3828465740671698e-03 0.0000000000000000e+00  9.4808237345778956e-01 3.3993070281920515e-02 0.0000000000000000e+00  2.3258998340303660e-01 -2.3458989134270879e-02 0.0000000000000000e+00  7.4041096475430279e-01 -1.1978098070610673e-03 0.0000000000000000e+00  3.3474064725798353e-01 2.5507706744436233e-03 0.0000000000000000e+00  7.7297659180478873e-01 -7.7349740835388353e-04 0.0000000000000000e+00  6.7869870201754212e-01 -1.9017375648493953e-01 0.0000000000000000e+00  8.1057886270629398e-01 8.1860192557935529e-02 0.0000000000000000e+00  8.4320816313895952e-01 -3.6669951121120620e-02 0.0000000000000000e+00  3.4209926857662576e-01 -3.7752763459129564e-03 0.0000000000000000e+00  7.4768174954185185e-01 1.0440389308748763e-03 0.0000000000000000e+00  1.2474068765942925e-01 3.4258768780617267e-02 0.0000000000000000e+00  7.6659101107160543e-01 -7.9795570862324257e-03 0.0000000000000000e+00  7.7703250957085479e-01 5.3317989053241727e-02 0.0000000000000000e+00  9.7890417885718406e-01 2.1768042067306207e-02 0.0000000000000000e+00  2.1222802760650125e-01 1.9934839270668390e-02 0.0000000000000000e+00  7.8333330151500613e-01 -1.2297239914331430e-02 0.0000000000000000e+00  9.0147989533360617e-01 -9.9094696520276276e-02 0.0000000000000000e+00  3.2517924031438550e-01 -1.1955118975897482e-02 0.0000000000000000e+00  7.9174792187250720e-01 -4.0042560789731190e-04 0.0000000000000000e+00  9.3650308677307614e-01 -4.6170306084822921e-02 0.0000000000000000e+00  8.2339147019604320e-01 1.5110751202795561e-01 0.0000000000000000e+00  9.3504016010409818e-01 4.7132101547361152e-02 0.0000000000000000e+00  8.2444879278425254e-01 -1.5502876347547878e-01 0.0000000000000000e+00  6.6938009376368723e-01 -4.4227122171346389e-02 0.0000000000000000e+00  1.1072036170509823e-01 -3.4708157012183542e-02 0.0000000000000000e+00  2.3589566281114829e-01 2.7847652402915105e-02 0.0000000000000000e+00  2.7631399058815542e-01 1.6338939554588632e-02 0.0000000000000000e+00  5.5985836170575864e-01 2.3230234976301400e-02 0.0000000000000000e+00  8.0097530645073378e-01 2.4051449736579890e-02 0.0000000000000000e+00  6.3141246136740958e-01 1.5329058610749258e-03 0.0000000000000000e+00  2.8596342393770907e-01 -4.2592006226506883e-03 0.0000000000000000e+00  8.9267237563002289e-01 -6.0296891458282422e-03 0.0000000000000000e+00  6.3569811019611178e-01 -3.7150753120374316e-02 0.0000000000000000e+00  2.4302935185953406e-01 2.2587941113169094e-03 0.0000000000000000e+00  2.1019909724805003e-01 -2.0205057773191818e-02 0.0000000000000000e+00  6.0884606470259328e-01 -1.4661375902625040e-03 0.0000000000000000e+00  3.1003946152687506e-01 9.6923620905388294e-03 0.0000000000000000e+00  7.6983414129603744e-01 2.5560702550109227e-03 0.0000000000000000e+00  6.9118358568608629e-01 1.7667717465317436e-03 0.0000000000000000e+00  5.8630671643942256e-01 6.8128418578784688e-03 0.0000000000000000e+00  2.5570542774830185e-01 5.9382246654801013e-03 0.0000000000000000e+00  7.9446306071845341e-01 9.1172039070444143e-03 0.0000000000000000e+00  7.6273173394598326e-01 1.7851887901997873e-02 0.0000000000000000e+00  4.9884118740802763e-01 -5.2974845263336595e-02 0.0000000000000000e+00  6.4501835688985376e-01 6.3731688692043598e-02 0.0000000000000000e+00  9.5528236338356509e-01 -3.4849072407594266e-02 0.0000000000000000e+00  7.9356060612621293e-01 -9.4010652477395293e-04 0.0000000000000000e+00  7.8274501505831173e-01 -2.4742649595531325e-04 0.0000000000000000e+00  8.0294296632567164e-01 2.7497846444944448e-05 0.0000000000000000e+00  6.7480590780079341e-01 2.3920813530401531e-02 0.0000000000000000e+00  5.1618554706211839e-01 -1.5991661262160967e-01 0.0000000000000000e+00  6.8520924404634298e-01 1.8862023353583224e-01 0.0000000000000000e+00  2.5395542753613731e-01 4.7169238163982739e-04 0.0000000000000000e+00  6.1476388172176766e-01 -3.3524200959310586e-02 0.0000000000000000e+00  5.9029960690805050e-01 1.1333995468707390e-02 0.0000000000000000e+00  6.2033446462077280e-01 -1.6225463307810881e-01 0.0000000000000000e+00  6.2668391029084569e-01 1.5968193198885966e-01 0.0000000000000000e+00  7.8870070570408590e-01 6.1306596438918205e-05 0.0000000000000000e+00  8.1351232209560553e-01 1.2611623496418547e-03 0.0000000000000000e+00  7.4876075557173194e-01 6.9578328643059115e-02 0.0000000000000000e+00  7.4056041315915055e-01 -7.4672932501795020e-02 0.0000000000000000e+00  2.8813608697413051e-01 -6.9848062214701969e-04 0.0000000000000000e+00  5.3766827534954775e-01 3.2112612722369219e-02 0.0000000000000000e+00  5.3765824570894705e-01 -3.2141560910111201e-02 0.0000000000000000e+00  3.1510637597241326e-01 -1.1404315065978987e-01 0.0000000000000000e+00  6.1043947191688053e-01 2.8950888400590571e-03 0.0000000000000000e+00  5.4604371132343210e-01 1.0800886788340651e-01 0.0000000000000000e+00  8.6640415074523791e-01 -2.2405063199184053e-03 0.0000000000000000e+00  5.9336233528817772e-01 6.7469944383021288e-04 0.0000000000000000e+00  6.1455426977420569e-01 -7.0928020803224926e-04 0.0000000000000000e+00  5.9244963204705803e-01 5.5324046834848168e-03 0.0000000000000000e+00  2.4497869233378472e-01 7.9574481092646740e-02 0.0000000000000000e+00  5.1418044321710676e-01 -1.0771368397730689e-01 0.0000000000000000e+00  6.3644152951884880e-01 -7.4866017316364058e-03 0.0000000000000000e+00  6.4463860627840519e-01 -1.6881461996693093e-03 0.0000000000000000e+00  2.5496442574278461e-01 -3.4556415659599369e-04 0.0000000000000000e+00  2.4681638517884663e-01 -3.6919136030907963e-03 0.0000000000000000e+00  8.1779558335001845e-01 -3.3353364487416139e-02 0.