<?xml version="1.0"?>
<VTKFile type="UnstructuredGrid"  version="0.1"  >
<UnstructuredGrid>
<Piece  NumberOfPoints="406" NumberOfCells="722">
<Points>
<DataArray  type="Float64"  NumberOfComponents="3"  format="ascii">-6 -2 0  -6 2 0  6 2 0  6 -2 0  -2.8 0 0  -1.2 0 0  -5.500000000001853 -2 0  -5.000000000003705 -2 0  -4.500000000005556 -2 0  -4.000000000007409 -2 0  -3.50000000000926 -2 0  -3.000000000011112 -2 0  -2.500000000012963 -2 0  -2.000000000014814 -2 0  -1.500000000016665 -2 0  -1.000000000018516 -2 0  -0.5000000000203677 -2 0  -2.204547655537681e-11 -2 0  0.4999999999796305 -2 0  0.9999999999814779 -2 0  1.499999999983327 -2 0  1.999999999985175 -2 0  2.499999999987029 -2 0  2.999999999988882 -2 0  3.499999999990735 -2 0  3.999999999992589 -2 0  4.49999999999444 -2 0  4.999999999996293 -2 0  5.499999999998147 -2 0  6 -1.500000000001387 0  6 -1.000000000002774 0  6 -0.5000000000041616 0  6 -5.505595979116151e-12 0  6 0.4999999999958384 0  6 0.9999999999972258 0  6 1.499999999998613 0  5.500000000001853 2 0  5.000000000003705 2 0  4.500000000005556 2 0  4.000000000007409 2 0  3.50000000000926 2 0  3.000000000011112 2 0  2.500000000012963 2 0  2.000000000014814 2 0  1.500000000016665 2 0  1.000000000018516 2 0  0.5000000000203677 2 0  2.204547655537681e-11 2 0  -0.4999999999796305 2 0  -0.9999999999814779 2 0  -1.499999999983327 2 0  -1.999999999985175 2 0  -2.499999999987029 2 0  -2.999999999988882 2 0  -3.499999999990735 2 0  -3.999999999992589 2 0  -4.49999999999444 2 0  -4.999999999996293 2 0  -5.499999999998147 2 0  -6 1.500000000001387 0  -6 1.000000000002774 0  -6 0.5000000000041616 0  -6 5.505595979116151e-12 0  -6 -0.4999999999958384 0  -6 -0.9999999999972258 0  -6 -1.499999999998613 0  -2.776753453941174 -0.1914525314286965 0  -2.708364820523325 -0.3717785376335722 0  -2.598808598538216 -0.5304981265911284 0  -2.454451797386757 -0.65838709271366 0  -2.283683909636528 -0.748012994147384 0  -2.096429344207466 -0.7941670992780535 0  -1.903570655798842 -0.7941670992788195 0  -1.716316090368095 -0.7480129941491368 0  -1.545548202616307 -0.6583870927157747 0  -1.401191401463757 -0.530498126593356 0  -1.291635179477527 -0.371778537635196 0  -1.223246546059047 -0.1914525314295925 0  -1.223246546058803 0.1914525314286035 0  -1.291635179476594 0.3717785376334188 0  -1.401191401461634 0.5304981265909601 0  -1.545548202612898 0.6583870927134221 0  -1.716316090363093 0.7480129941472402 0  -1.903570655792394 0.7941670992780367 0  -2.096429344201276 0.7941670992788055 0  -2.283683909631911 0.7480129941491347 0  -2.454451797383697 0.6583870927157729 0  -2.598808598536385 0.530498126593196 0  -2.70836482052258 0.3717785376349917 0  -2.776753453940975 0.1914525314295042 0  0.4588466633941945 0.2704149791022056 0  -4.424312812173863 0.2760319703992994 0  -3.803977598762586 -0.6841584599595646 0  -0.1330968762779425 -0.6798763971615133 0  2.451109587541276 3.169800318630399e-13 0  -3.563610936250569 0.5929994091167295 0  4.204753319582647 0.2820669554523581 0  -0.4390897559348154 0.6178095532273566 0  -3.041446812595122 1.175550440315544 0  -0.9622132806516797 1.132103015222783 0  1.069493318942931 -0.773608156980569 0  -4.924330687080279 -0.7127064269610045 0  -3.024693497948964 -1.195179289656404 0  -0.9648749555625579 -1.256854520022574 0  -3.443624282349383 -0.2044158249759613 0  -0.5611500783757608 -0.1747080110423833 0  1.60270880116926 0.7487034276124258 0  3.488352576142236 -0.8228939860777884 0  4.816375011670135 -0.8163750116689444 0  3.243628045085357 0.8578172796997985 0  -4.228632884234073 1.228069101636678 0  -2.365220384435482 -1.356128547810356 0  -1.637465979486354 1.3571687267915 0  -1.642380978561139 -1.359365080147485 0  -2.362988915989869 1.356737096243695 0  -5.134120367293631 0.8356299802910161 0  2.077496878467794 -0.9514080034522553 0  4.960859291178299 0.9608592911785537 0  0.3293120056474302 1.148965409695154 0  -5.157560560414062 0.09447106214747865 0  -3.14779387667392 -0.6330563038825547 0  -3.148134455585257 0.4354299640428653 0  -0.8464439673630421 0.4159277415926296 0  -0.9918125625721008 -0.7191748422889824 0  -4.355349213295776 -1.234510499778242 0  1.582074659164868 -0.06850205959954866 0  2.400584045214166 1.204278622181321 0  5.102831660739063 0.03453404176596848 0  4.083259768981113 1.154272958349666 0  -3.992394834362243 -0.1621022234411988 0  0.4290302718942113 -1.225465289645401 0  -3.681487986394671 -1.310544246656267 0  -3.640289698916164 1.187023654838123 0  0.468851680921228 -0.447055967952278 0  3.315209904217932 0.05667935655546536 0  -2.541160649745046 -1.046980928586996 0  -1.45196684542695 1.044189935346116 0  -2.000844595891861 -1.207983108473125 0  -1.453092202970521 -1.061139264918894 0  -2.000050543938391 1.207806685704176 0  -2.548033154566413 1.04418993534851 0  4.13054585796652 -1.232871249381608 0  -0.3301617095463629 1.221692405319566 0  -0.2880491989587189 -1.359626628407983 0  -0.0758941643813178 0.132275811829787 0  2.826389221580753 -1.233168480096227 0  -2.922070412327736 0.7575752117792038 0  1.003070890178416 1.271347915034201 0  -5.319521816151902 -1.310543894393663 0  -1.070407062963812 0.7877698545098388 0  -4.562499863038985 -0.2302396981426722 0  -3.164226661545047 0.07179577787350272 0  -0.9091377812900333 0.132454654016971 0  4.116029045943655 -0.4851826871817362 0  5.316659189209927 -1.316659189208741 0  -0.9498828454673396 -0.4149758979014553 0  -4.037769805263969 0.6896174350675625 0  1.431664772855882 -1.327784137638992 0  -3.646693623568034 0.1600006358878044 0  -2.878371345483476 -0.7910345833001061 0  1.062603041385242 0.2894765870627741 0  -0.547955103783681 0.1635272504420374 0  -4.804809838419659 1.41016301576038 0  -3.042895319571192 -0.3694931303482478 0  -4.59252578392403 0.792267765362792 0  2.823271260730033 -0.5472430318427347 0  -4.28575390662405 -0.7521491832384866 0  -0.5524005545121191 -0.9037367558558163 0  1.815219025072439 1.388812135783969 0  -1.288398729718543 -0.8178399475601057 0  -5.424388493366639 1.35375165044146 0  -2.256991952837567 -1.049538527273222 0  -1.739586738723494 -1.052327527873255 0  -1.738827359988536 1.050180627239116 0  -2.257795730428802 1.049701225145305 0  -0.62222340523776 -0.5483611729237363 0  2.065188519029698 0.5424877383589943 0  0.1055865106318892 0.7347782870471022 0  1.013082573993895 -0.2061877611231605 0  -5.428323520618333 -0.4386412085227075 0  5.374041502384443 -0.5304401760993408 0  3.435185060219232 -1.377658617395091 0  -3.302377238490527 0.8841390072780534 0  -0.9902123298072768 -0.124175295282554 0  0.7186958547669859 0.8724503317343631 0  2.941237214953417 1.390391532351976 0  4.708037787864423 -1.340276032051348 0  5.395029680982659 1.395029680983341 0  3.591022587550188 1.348260650408605 0  2.759385971589342 0.4857447325740718 0  -0.6832705231418494 0.8879387563573758 0  5.437781298507145 0.5981501503262471 0  -2.698603003287285 1.617130043745112 0  -3.463358189947519 -1.013588318179017 0  1.710866040171871 -0.6978716337870808 0  3.642182982762737 0.4555704362064124 0  -2.699802128031161 -1.618310703146212 0  -1.3020054856637 1.619819977935582 0  -2.000000000004996 -1.566396763829867 0  -1.999999999994794 1.566396763830688 0  -1.247812462071684 -1.595232739507426 0  4.59429106759859 1.420052135572917 0  0.9448382581152466 -1.440259145469251 0  -0.116376100998861 -0.2606209011258676 0  -4.774521510507792 0.4245390872783272 0  -2.983910172370106 -0.1208000607277856 0  -3.353983741142061 1.576062863985777 0  -5.473352579109997 0.4917619255280954 0  -4.828650470275986 -1.493148538517745 0  4.639973657165532 -0.2833178611094909 0  -2.660279445404468 0.7699932347178977 0  -1.335045190775955 0.7744876666923373 0  -3.395669172689978 0.2584951122361346 0  2.279110606119369 -1.465899541383697 0  4.734317729212562 0.4520963557364723 0  -0.6334913028224612 1.584213953723378 0  2.121854101359879 -0.4289611127787379 0  -3.474459720833238 -0.4977581316675216 0  -1.066539898844178 0.3411379476537602 0  -3.361849707555382 -1.611428512420182 0  -4.099039818938317 0.3306400369415774 0  -2.935324777364672 0.354721898811665 0  -3.973578595052027 1.482940358734671 0  3.784450148635689 -0.0702780807301525 0  -1.191348122671212 -0.5614501189722798 0  -2.838672605956353 -0.5493179047027598 0  -1.184983441257359 0.5617520886612424 0  -2.811184099847449 0.5574240755049175 0  0.2702752249355158 -0.8003643570420809 0  -0.6945947797857237 -1.593893965175195 0  0.001175881878679056 1.504521009023778 0  0.6072931735145096 1.501814722697789 0  -3.991896293645949 -1.047264188412552 0  -3.734097395159253 -0.3261671578666079 0  -5.539652387691843 -0.8857154182585802 0  -4.395061924111849 1.563293728588296 0  0.2258327611651416 -0.08745142624872881 0  -3.774816634825771 0.8676973328379478 0  2.208484493569073 1.6256686312487 0  0.1309939514660535 -1.566169703482512 0  -5.551414360955331 0.9459842275970113 0  -4.04734138658365 -1.51163984963472 0  -4.947145019546805 -0.3299925153029702 0  4.320410447198621 0.6970857582435144 0  -4.707557346727139 -1.000565649857444 0  1.353711468973986 1.582551234446199 0  1.674156483558973 0.3266252271732694 0  -4.039105552973997 -0.4537604746027087 0  0.01051727619263377 -1.088858357362194 0  -0.2234942609176301 0.8619127912343982 0  -2.95903482691863 0.1219373374385197 0  -4.682467695920681 0.0804575682243254 0  5.535750224195656 -0.1525732643419722 0  -4.290083947414376 -0.0005258314026840717 0  1.136102562417988 0.7655312464039168 0  -2.816589394567214 0.9927597419785312 0  -2.645374456162409 -0.7645902451387543 0  4.18414576655837 1.624276131878667 0  0.7127337088822223 -0.9006358935856398 0  1.972418102153911 0.9727040774616764 0  -2.42199174813501 0.8591219219254587 0  -2.418604734200992 -0.8552987735117754 0  -5.573597213364169 -0.03612430678117123 0  2.024792870869397 0.05574071630590883 0  -1.578875191508968 0.861424470724936 0  -1.54706008231699 -0.8630049102346303 0  3.848662181064435 -1.569601980075533 0  -2.000000000003871 -0.9746445732264465 0  -1.99999999
[...]
<PointData  Vectors="f_22"> 
<DataArray  type="Float64"  Name="f_22"  NumberOfComponents="3" format="ascii">0.0000000000000000e+00 0.0000000000000000e+00 0.0000000000000000e+00  0.0000000000000000e+00 0.0000000000000000e+00 0.0000000000000000e+00  0.0000000000000000e+00 0.0000000000000000e+00 0.0000000000000000e+00  0.0000000000000000e+00 0.0000000000000000e+00 0.0000000000000000e+00  9.9999995795995700e-01 0.0000000000000000e+00 0.0000000000000000e+00  9.9999995795995700e-01 0.0000000000000000e+00 0.0000000000000000e+00  0.0000000000000000e+00 0.0000000000000000e+00 0.0000000000000000e+00  0.0000000000000000e+00 0.0000000000000000e+00 0.0000000000000000e+00  0.0000000000000000e+00 0.0000000000000000e+00 0.0000000000000000e+00  0.0000000000000000e+00 0.0000000000000000e+00 0.0000000000000000e+00  0.0000000000000000e+00 0.0000000000000000e+00 0.0000000000000000e+00  0.0000000000000000e+00 0.0000000000000000e+00 0.0000000000000000e+00  0.0000000000000000e+00 0.0000000000000000e+00 0.0000000000000000e+00  0.0000000000000000e+00 0.0000000000000000e+00 0.0000000000000000e+00  0.0000000000000000e+00 0.0000000000000000e+00 0.0000000000000000e+00  0.0000000000000000e+00 0.0000000000000000e+00 0.0000000000000000e+00  0.0000000000000000e+00 0.0000000000000000e+00 0.0000000000000000e+00  0.0000000000000000e+00 0.0000000000000000e+00 0.0000000000000000e+00  0.0000000000000000e+00 0.0000000000000000e+00 0.0000000000000000e+00  0.0000000000000000e+00 0.0000000000000000e+00 0.0000000000000000e+00  0.0000000000000000e+00 0.0000000000000000e+00 0.0000000000000000e+00  0.0000000000000000e+00 0.0000000000000000e+00 0.0000000000000000e+00  0.0000000000000000e+00 0.0000000000000000e+00 0.0000000000000000e+00  0.0000000000000000e+00 0.0000000000000000e+00 0.0000000000000000e+00  0.0000000000000000e+00 0.0000000000000000e+00 0.0000000000000000e+00  0.0000000000000000e+00 0.0000000000000000e+00 0.0000000000000000e+00  0.0000000000000000e+00 0.0000000000000000e+00 0.0000000000000000e+00  0.0000000000000000e+00 0.0000000000000000e+00 0.0000000000000000e+00  0.0000000000000000e+00 0.0000000000000000e+00 0.0000000000000000e+00  3.3071857739150695e-01 -3.8753688438442980e-04 0.0000000000000000e+00  5.8028848183040393e-01 -6.9822713777971260e-04 0.0000000000000000e+00  7.2578939322691571e-01 -6.2218194073223286e-04 0.0000000000000000e+00  7.7373388344341931e-01 -2.4023379151838530e-05 0.0000000000000000e+00  7.2573658997918755e-01 5.7161948943533600e-04 0.0000000000000000e+00  5.8024996955998387e-01 7.0362147893399259e-04 0.0000000000000000e+00  3.3075264283514633e-01 3.3971405834038343e-04 0.0000000000000000e+00  0.0000000000000000e+00 0.0000000000000000e+00 0.0000000000000000e+00  0.0000000000000000e+00 0.0000000000000000e+00 0.0000000000000000e+00  0.0000000000000000e+00 0.0000000000000000e+00 0.0000000000000000e+00  0.0000000000000000e+00 0.0000000000000000e+00 0.0000000000000000e+00  0.0000000000000000e+00 0.0000000000000000e+00 0.0000000000000000e+00  0.0000000000000000e+00 0.0000000000000000e+00 0.0000000000000000e+00  0.0000000000000000e+00 0.0000000000000000e+00 0.0000000000000000e+00  0.0000000000000000e+00 0.0000000000000000e+00 0.0000000000000000e+00  0.0000000000000000e+00 0.0000000000000000e+00 0.0000000000000000e+00  0.0000000000000000e+00 0.0000000000000000e+00 0.0000000000000000e+00  0.0000000000000000e+00 0.0000000000000000e+00 0.0000000000000000e+00  0.0000000000000000e+00 0.0000000000000000e+00 0.0000000000000000e+00  0.0000000000000000e+00 0.0000000000000000e+00 0.0000000000000000e+00  0.0000000000000000e+00 0.0000000000000000e+00 0.0000000000000000e+00  0.0000000000000000e+00 0.0000000000000000e+00 0.0000000000000000e+00  0.0000000000000000e+00 0.0000000000000000e+00 0.0000000000000000e+00  0.0000000000000000e+00 0.0000000000000000e+00 0.0000000000000000e+00  0.0000000000000000e+00 0.0000000000000000e+00 0.0000000000000000e+00  0.0000000000000000e+00 0.0000000000000000e+00 0.0000000000000000e+00  0.0000000000000000e+00 0.0000000000000000e+00 0.0000000000000000e+00  0.0000000000000000e+00 0.0000000000000000e+00 0.0000000000000000e+00  0.0000000000000000e+00 0.0000000000000000e+00 0.0000000000000000e+00  0.0000000000000000e+00 0.0000000000000000e+00 0.0000000000000000e+00  3.2939380745586250e-01 -6.3760941591014457e-04 0.0000000000000000e+00  5.7970532900440386e-01 -1.0748006668216050e-03 0.0000000000000000e+00  7.2658739531124716e-01 -8.6546414653938179e-04 0.0000000000000000e+00  7.7557775164659337e-01 -1.5225821680877270e-05 0.0000000000000000e+00  7.2727359624370347e-01 9.8421402749860644e-04 0.0000000000000000e+00  5.8000281977406010e-01 1.1382015318378673e-03 0.0000000000000000e+00  3.2939527115833261e-01 6.8376245215201665e-04 0.0000000000000000e+00  9.9999995795995700e-01 0.0000000000000000e+00 0.0000000000000000e+00  9.9999995795995700e-01 0.0000000000000000e+00 0.0000000000000000e+00  9.9999995795995700e-01 0.0000000000000000e+00 0.0000000000000000e+00  9.9999995795995700e-01 0.0000000000000000e+00 0.0000000000000000e+00  9.9999995795995700e-01 0.0000000000000000e+00 0.0000000000000000e+00  9.9999995795995700e-01 0.0000000000000000e+00 0.0000000000000000e+00  9.9999995795995700e-01 0.0000000000000000e+00 0.0000000000000000e+00  9.9999995795995700e-01 0.0000000000000000e+00 0.0000000000000000e+00  9.9999995795995700e-01 0.0000000000000000e+00 0.0000000000000000e+00  9.9999995795995700e-01 0.0000000000000000e+00 0.0000000000000000e+00  9.9999995795995700e-01 0.0000000000000000e+00 0.0000000000000000e+00  9.9999995795995700e-01 0.0000000000000000e+00 0.0000000000000000e+00  9.9999995795995700e-01 0.0000000000000000e+00 0.0000000000000000e+00  9.9999995795995700e-01 0.0000000000000000e+00 0.0000000000000000e+00  9.9999995795995700e-01 0.0000000000000000e+00 0.0000000000000000e+00  9.9999995795995700e-01 0.0000000000000000e+00 0.0000000000000000e+00  9.9999995795995700e-01 0.0000000000000000e+00 0.0000000000000000e+00  9.9999995795995700e-01 0.0000000000000000e+00 0.0000000000000000e+00  9.9999995795995700e-01 0.0000000000000000e+00 0.0000000000000000e+00  9.9999995795995700e-01 0.0000000000000000e+00 0.0000000000000000e+00  9.9999995795995700e-01 0.0000000000000000e+00 0.0000000000000000e+00  9.9999995795995700e-01 0.0000000000000000e+00 0.0000000000000000e+00  9.9999995795995700e-01 0.0000000000000000e+00 0.0000000000000000e+00  9.9999995795995700e-01 0.0000000000000000e+00 0.0000000000000000e+00  8.4669678630740763e-01 1.7599735850086076e-02 0.0000000000000000e+00  7.7080050149830059e-01 -6.0860864097097992e-03 0.0000000000000000e+00  6.9488448293696559e-01 3.6064777608328033e-02 0.0000000000000000e+00  7.3931375425504542e-01 -5.5024915641544388e-02 0.0000000000000000e+00  7.9511709404584474e-01 1.6524591532665024e-05 0.0000000000000000e+00  7.3196629337587404e-01 -5.2770591305519345e-02 0.0000000000000000e+00  7.6226283251437121e-01 1.2148210428780983e-03 0.0000000000000000e+00  7.9408242085269720e-01 6.2491265257776762e-02 0.0000000000000000e+00  4.2155851691731755e-01 -1.0269243521069900e-01 0.0000000000000000e+00  4.0764968537269042e-01 1.0290621761914047e-01 0.0000000000000000e+00  6.6247436555996897e-01 -2.6382713405967349e-02 0.0000000000000000e+00  6.7779764762529748e-01 4.8360380623957248e-03 0.0000000000000000e+00  4.0706101309614512e-01 1.0205407149353683e-01 0.0000000000000000e+00  2.9367088881425030e-01 -8.9507618378655771e-02 0.0000000000000000e+00  8.3707316370604545e-01 2.8695459805666335e-02 0.0000000000000000e+00  9.4705323769462890e-01 -1.7317884485749918e-02 0.0000000000000000e+00  6.6932619518209036e-01 1.7176986989246454e-02 0.0000000000000000e+00  6.4260146608649527e-01 -3.8075444848683759e-03 0.0000000000000000e+00  6.4525777020053754e-01 -1.4219711690617038e-03 0.0000000000000000e+00  6.3035531179312254e-01 4.5812911885217472e-03 0.0000000000000000e+00  4.6884588153390111e-01 -1.3459885990888812e-02 0.0000000000000000e+00  1.5818833666904905e-01 1.0602054511706219e-01 0.0000000000000000e+00  1.1280920799977782e-01 2.9533929790322769e-02 0.0000000000000000e+00  1.1063382407233345e-01 -2.8346433711644244e-02 0.0000000000000000e+00  1.5726412652805741e-01 -1.0579643313498258e-01 0.0000000000000000e+00  6.3927909039429232e-01 -3.3058233854640316e-03 0.0000000000000000e+00  5.9091128814287541e-01 -1.1257323878333211e-02 0.0000000000000000e+00  5.9486017463557272e-01 1.2134258047272674e-03 0.0000000000000000e+00  4.6141875936500515e-01 4.1553342102366053e-02 0.0000000000000000e+00  7.7614692653453499e-01 -4.4840306537236984e-04 0.0000000000000000e+00  7.3746367349882191e-01 1.1384344101295746e-01 0.0000000000000000e+00  8.2302625399552309e-01 -9.3383713894474946e-02 0.0000000000000000e+00  9.3079481037284151e-01 4.3535919490519839e-02 0.0000000000000000e+00  7.9374259886552345e-01 -8.8912615888153607e-02 0.0000000000000000e+00  4.6800220798701708e-01 1.0761192597205808e-02 0.0000000000000000e+00  8.1528151639918112e-01 -2.2855652824636595e-03 0.0000000000000000e+00  4.7887375789272707e-01 6.6416569075552073e-03 0.0000000000000000e+00  7.7502096216744398e-01 6.4854168300268158e-05 0.0000000000000000e+00  5.1216130111937497e-01 1.8659255870691921e-03 0.0000000000000000e+00  7.9628828208465241e-01 8.3346437601475275e-03 0.0000000000000000e+00  4.2019026831962414e-01 -3.5161479239503697e-02 0.0000000000000000e+00  4.0606539281621440e-01 3.0181342840068345e-02 0.0000000000000000e+00  4.7106779094670936e-01 -3.8608669296505721e-02 0.0000000000000000e+00  8.0189797093671122e-01 -2.7703193101201732e-02 0.0000000000000000e+00  7.8341142017295406e-01 5.1513025911353221e-04 0.0000000000000000e+00  4.1317629498811431e-01 1.8428529466650459e-01 0.0000000000000000e+00  4.6939019932835840e-01 9.5708368651911790e-02 0.0000000000000000e+00  2.1796608448295030e-01 5.3675354010753774e-02 0.0000000000000000e+00  4.4777544918485918e-01 -9.4452467532499945e-02 0.0000000000000000e+00  2.1809572073917946e-01 -5.3411411003681866e-02 0.0000000000000000e+00  4.1707028170234894e-01 -1.8446801255160475e-01 0.0000000000000000e+00  4.7457226573430361e-01 -1.6041454038887336e-03 0.0000000000000000e+00  3.8101816550648415e-01 6.5009311345009244e-02 0.0000000000000000e+00  2.8965527599011387e-01 -5.1403213679766760e-02 0.0000000000000000e+00  9.0621110285365924e-01 1.1104292810153809e-02 0.0000000000000000e+00  4.6825695002441342e-01 -4.5025673648829943e-03 0.0000000000000000e+00  6.7301389778160903e-01 -1.6621059842974764e-01 0.0000000000000000e+00  4.1657558352072727e-01 2.0309051649217081e-02 0.0000000000000000e+00  4.3573292772798256e-01 1.6972060894564476e-03 0.0000000000000000e+00  7.4739924889776055e-01 9.8023202477484445e-02 0.0000000000000000e+00  7.7335078854510608e-01 4.0146569867371886e-03 0.0000000000000000e+00  9.0220622242567938e-01 -1.7158259305138188e-02 0.0000000000000000e+00  9.8480808424327548e-01 9.9514998375385116e-03 0.0000000000000000e+00  7.3122364377114368e-01 -1.9864629240339809e-03 0.0000000000000000e+00  4.3402822832492921e-01 -6.3559737451954581e-04 0.0000000000000000e+00  9.4605423842758674e-01 -3.9730030568529244e-02 0.0000000000000000e+00  6.8957680278783551e-01 -2.3668633804722752e-02 0.0000000000000000e+00  3.9826127184830606e-01 -1.2408896081342172e-02 0.0000000000000000e+00  8.2034738484619008e-01 -1.5332770897903752e-02 0.0000000000000000e+00  6.4970985576262119e-01 1.7488910016436768e-01 0.0000000000000000e+00  8.1174419970131018e-01 1.3629151631536239e-02 0.0000000000000000e+00  9.4715445779235430e-01 1.6118127824470096e-02 0.0000000000000000e+00  3.7818564224836471e-01 -3.4846240320584444e-03 0.0000000000000000e+00  8.6596688246584108e-01 9.8320734198761417e-02 0.0000000000000000e+00  6.5394767683012722e-01 -8.9671472493652784e-03 0.0000000000000000e+00  7.2298078383807152e-01 -5.7471587817118277e-03 0.0000000000000000e+00  6.6799209398758363e-01 1.5667039830125969e-02 0.0000000000000000e+00  6.1492045660221983e-01 -8.5607392738583199e-02 0.0000000000000000e+00  3.7300494124442435e-01 7.6774297674306506e-03 0.0000000000000000e+00  7.4936844644951806e-01 -9.6321741359615604e-02 0.0000000000000000e+00  4.1264149072707096e-01 -1.3066383343649992e-03 0.0000000000000000e+00  3.8214020837135904e-01 1.3699755412545053e-01 0.0000000000000000e+00  4.3230239113534558e-01 -4.1002945185335898e-02 0.0000000000000000e+00  4.3557498979195142e-01 4.1434946369561687e-02 0.0000000000000000e+00  3.8187257002231001e-01 -1.3724136794378353e-01 0.0000000000000000e+00  8.4791586143114583e-01 -6.1348829154007745e-02 0.0000000000000000e+00  7.3023882799568218e-01 1.0376563628174015e-02 0.0000000000000000e+00  6.9927225105493518e-01 4.9334453080568011e-02 0.0000000000000000e+00  8.2691543578855553e-01 -1.0305111355147840e-02 0.0000000000000000e+00  7.3898400842198697e-01 1.3659739783170384e-03 0.0000000000000000e+00  7.2019427787652490e-01 -8.6402443510078843e-04 0.0000000000000000e+00  3.9612078179690940e-01 -2.0367604590584044e-03 0.0000000000000000e+00  6.1181709968859033e-01 -8.8478973709061784e-02 0.0000000000000000e+00  9.9111060615522906e-01 -7.3304435040968674e-03 0.0000000000000000e+00  6.1905078971304206e-01 3.4673548345682814e-02 0.0000000000000000e+00  3.8577613203987099e-01 2.9207583739212784e-03 0.0000000000000000e+00  4.2072663450668257e-01 -8.1206641231183383e-04 0.0000000000000000e+00  3.9154509786522518e-01 5.4535117414843636e-04 0.0000000000000000e+00  4.1279485814435257e-01 1.9095069843515504e-03 0.0000000000000000e+00  7.3735344806094361e-01 5.7029080856451867e-03 0.0000000000000000e+00  6.3136943906499099e-01 9.3034307353627554e-02 0.0000000000000000e+00  7.0529654231507344e-01 8.6085082917659980e-04 0.0000000000000000e+00  1.0642019417351838e-01 -4.5609469884323850e-02 0.0000000000000000e+00  5.5185267786554015e-01 6.3034137195741469e-02 0.0000000000000000e+00  6.8685768717709295e-01 -1.5517011396378507e-02 0.0000000000000000e+00  7.3845196248732770e-01 2.7347562766713096e-03 0.0000000000000000e+00  1.0615443008546785e-01 4.5307792850909169e-02 0.0000000000000000e+00  4.7670361945854623e-04 2.9946650466559834e-02 0.0000000000000000e+00  -6.5177928953942784e-03 2.9778624562640500e-02 0.0000000000000000e+00  -6.5502478840425591e-03 -2.9743028194692007e-02 0.0000000000000000e+00  1.9053920477682090e-02 -3.4962283511610272e-02 0.0000000000000000e+00  3.7594410139304413e-01 7.0147787280056678e-04 0.0000000000000000e+00  3.1964040357787743e-01 -1.4735932918425159e-02 0.0000000000000000e+00  8.9060778590495226e-01 -2.2256898919461893e-02 0.0000000000000000e+00  7.4442257096884690e-01 -4.6234765421821937e-03 0.0000000000000000e+00  9.4480146945741961e-01 3.6157948564050357e-02 0.0000000000000000e+00  2.2653009118207715e-01 -2.4576125917408712e-02 0.0000000000000000e+00  7.2888462434528389e-01 -1.2721664200438033e-03 0.0000000000000000e+00  3.3043013527873510e-01 2.6792986618843534e-03 0.0000000000000000e+00  7.6070814003280174e-01 -8.9311768677975342e-04 0.0000000000000000e+00  6.6842057870436777e-01 -1.9849111222190771e-01 0.0000000000000000e+00  8.0581475316784701e-01 8.4167657111438393e-02 0.0000000000000000e+00  8.3447678566426708e-01 -3.8837438013063212e-02 0.0000000000000000e+00  3.3641364853202849e-01 -4.0616956687664412e-03 0.0000000000000000e+00  7.3603256744857182e-01 1.2087564367227594e-03 0.0000000000000000e+00  1.1384705538885066e-01 3.5671565839133376e-02 0.0000000000000000e+00  7.5623261873687475e-01 -8.5381327462847757e-03 0.0000000000000000e+00  7.6751046873363382e-01 5.6346397065436003e-02 0.0000000000000000e+00  9.7839617083064079e-01 2.2351680630599370e-02 0.0000000000000000e+00  2.0670561390583828e-01 2.0871217561257423e-02 0.0000000000000000e+00  7.7193310470350673e-01 -1.2982003306387600e-02 0.0000000000000000e+00  8.9665604308410096e-01 -1.0498924760978322e-01 0.0000000000000000e+00  3.2010506075966810e-01 -1.2515392185078649e-02 0.0000000000000000e+00  7.7953975779889406e-01 -4.4832245118763713e-04 0.0000000000000000e+00  9.3489164276004277e-01 -4.7419032292747534e-02 0.0000000000000000e+00  8.1642145305532909e-01 1.5906601230996661e-01 0.0000000000000000e+00  9.3336847605312279e-01 4.8422458105452475e-02 0.0000000000000000e+00  8.1754957623988345e-01 -1.6300023670910280e-01 0.0000000000000000e+00  6.6008506150596913e-01 -4.6192159733849880e-02 0.0000000000000000e+00  9.9649526727287621e-02 -3.6109390112945020e-02 0.0000000000000000e+00  2.2679904548790270e-01 2.8949154409868404e-02 0.0000000000000000e+00  2.6877366920223789e-01 1.7016126349136435e-02 0.0000000000000000e+00  5.5166643051184383e-01 2.4449021137245647e-02 0.0000000000000000e+00  7.9048453843022337e-01 2.5399358811415130e-02 0.0000000000000000e+00  6.2249520433939165e-01 1.6176237124560882e-03 0.0000000000000000e+00  2.8211473705891554e-01 -4.4688004163419837e-03 0.0000000000000000e+00  8.8639908914558940e-01 -6.3772877916544951e-03 0.0000000000000000e+00  6.2644944554902471e-01 -3.9158465732838321e-02 0.0000000000000000e+00  2.3906731034791928e-01 2.4151826971831689e-03 0.0000000000000000e+00  2.0217438915957772e-01 -2.0986026867957100e-02 0.0000000000000000e+00  6.0040569603272420e-01 -1.5512106469485680e-03 0.0000000000000000e+00  3.0536034645510457e-01 1.0133510889124585e-02 0.0000000000000000e+00  7.5767705217789816e-01 2.6917808949580200e-03 0.0000000000000000e+00  6.8094602276593508e-01 2.0136274758605580e-03 0.0000000000000000e+00  5.7818774916859905e-01 7.1614331132628549e-03 0.0000000000000000e+00  2.5030547811990089e-01 6.2746692284196947e-03 0.0000000000000000e+00  7.8458810361127551e-01 9.6733353786405529e-03 0.0000000000000000e+00  7.5178381038046660e-01 1.8826556137501196e-02 0.0000000000000000e+00  4.8829914128142982e-01 -5.5257642429273404e-02 0.0000000000000000e+00  6.3530877454947665e-01 6.6934249208536079e-02 0.0000000000000000e+00  9.5245131444081599e-01 -3.7099842605919586e-02 0.0000000000000000e+00  7.8098527734250611e-01 -1.0013406277585271e-03 0.0000000000000000e+00  7.6986804658369734e-01 -2.9029928692064799e-04 0.0000000000000000e+00  7.9076361100410719e-01 2.4006917591047605e-05 0.0000000000000000e+00  6.6528949544742666e-01 2.5089413579330082e-02 0.0000000000000000e+00  5.0356102031174921e-01 -1.6762094376030179e-01 0.0000000000000000e+00  6.7513877343498485e-01 1.9678753387699244e-01 0.0000000000000000e+00  2.5093994112059947e-01 5.2912834336457475e-04 0.0000000000000000e+00  6.0518108918969216e-01 -3.4946377741177675e-02 0.0000000000000000e+00  5.8127528058653755e-01 1.2098700793417761e-02 0.0000000000000000e+00  6.0987381548694886e-01 -1.6784868519038049e-01 0.0000000000000000e+00  6.1642351079977642e-01 1.6515740887354491e-01 0.0000000000000000e+00  7.7576184754736643e-01 6.0843793337882130e-05 0.0000000000000000e+00  8.0308335913593976e-01 1.3474109362841351e-03 0.0000000000000000e+00  7.4303712362678342e-01 7.1305899327196928e-02 0.0000000000000000e+00  7.3454907712825634e-01 -7.6578111901253784e-02 0.0000000000000000e+00  2.8443557154782989e-01 -7.8752674735972476e-04 0.0000000000000000e+00  5.2691153342149921e-01 3.3025367937989242e-02 0.0000000000000000e+00  5.2690311372886478e-01 -3.3054727396180178e-02 0.0000000000000000e+00  3.0143891732065753e-01 -1.1938564487397008e-01 0.0000000000000000e+00  6.0170808114579866e-01 3.2246999393997270e-03 0.0000000000000000e+00  5.3436742113617952e-01 1.1194714481648391e-01 0.0000000000000000e+00  8.5873295143329875e-01 -2.3410651729443960e-03 0.0000000000000000e+00  5.8525392217609551e-01 8.0483510499848696e-04 0.0000000000000000e+00  6.0600373550178133e-01 -8.4387372508870899e-04 0.0000000000000000e+00  5.8377240117379936e-01 6.0113236388984886e-03 0.0000000000000000e+00  2.2853723090200329e-01 8.2673930263986131e-02 0.0000000000000000e+00  5.0178057425682643e-01 -1.1182794067592020e-01 0.0000000000000000e+00  6.2711951687966039e-01 -8.0767893477065398e-03 0.0000000000000000e+00  6.3537459470177393e-01 -1.9353843832412131e-03 0.0000000000000000e+00  2.5196158727420770e-01 -4.1140677253369555e-04 0.0000000000000000e+00  2.4226424488897710e-01 -3.9162561046539235e-03 0.0000000000000000e+00  8.1040559360321585e-01 -3.5151800544534505e-02 