<?xml version="1.0"?>
<VTKFile type="UnstructuredGrid"  version="0.1"  >
<UnstructuredGrid>
<Piece  NumberOfPoints="406" NumberOfCells="722">
<Points>
<DataArray  type="Float64"  NumberOfComponents="3"  format="ascii">-6 -2 0  -6 2 0  6 2 0  6 -2 0  -2.8 0 0  -1.2 0 0  -5.500000000001853 -2 0  -5.000000000003705 -2 0  -4.500000000005556 -2 0  -4.000000000007409 -2 0  -3.50000000000926 -2 0  -3.000000000011112 -2 0  -2.500000000012963 -2 0  -2.000000000014814 -2 0  -1.500000000016665 -2 0  -1.000000000018516 -2 0  -0.5000000000203677 -2 0  -2.204547655537681e-11 -2 0  0.4999999999796305 -2 0  0.9999999999814779 -2 0  1.499999999983327 -2 0  1.999999999985175 -2 0  2.499999999987029 -2 0  2.999999999988882 -2 0  3.499999999990735 -2 0  3.999999999992589 -2 0  4.49999999999444 -2 0  4.999999999996293 -2 0  5.499999999998147 -2 0  6 -1.500000000001387 0  6 -1.000000000002774 0  6 -0.5000000000041616 0  6 -5.505595979116151e-12 0  6 0.4999999999958384 0  6 0.9999999999972258 0  6 1.499999999998613 0  5.500000000001853 2 0  5.000000000003705 2 0  4.500000000005556 2 0  4.000000000007409 2 0  3.50000000000926 2 0  3.000000000011112 2 0  2.500000000012963 2 0  2.000000000014814 2 0  1.500000000016665 2 0  1.000000000018516 2 0  0.5000000000203677 2 0  2.204547655537681e-11 2 0  -0.4999999999796305 2 0  -0.9999999999814779 2 0  -1.499999999983327 2 0  -1.999999999985175 2 0  -2.499999999987029 2 0  -2.999999999988882 2 0  -3.499999999990735 2 0  -3.999999999992589 2 0  -4.49999999999444 2 0  -4.999999999996293 2 0  -5.499999999998147 2 0  -6 1.500000000001387 0  -6 1.000000000002774 0  -6 0.5000000000041616 0  -6 5.505595979116151e-12 0  -6 -0.4999999999958384 0  -6 -0.9999999999972258 0  -6 -1.499999999998613 0  -2.776753453941174 -0.1914525314286965 0  -2.708364820523325 -0.3717785376335722 0  -2.598808598538216 -0.5304981265911284 0  -2.454451797386757 -0.65838709271366 0  -2.283683909636528 -0.748012994147384 0  -2.096429344207466 -0.7941670992780535 0  -1.903570655798842 -0.7941670992788195 0  -1.716316090368095 -0.7480129941491368 0  -1.545548202616307 -0.6583870927157747 0  -1.401191401463757 -0.530498126593356 0  -1.291635179477527 -0.371778537635196 0  -1.223246546059047 -0.1914525314295925 0  -1.223246546058803 0.1914525314286035 0  -1.291635179476594 0.3717785376334188 0  -1.401191401461634 0.5304981265909601 0  -1.545548202612898 0.6583870927134221 0  -1.716316090363093 0.7480129941472402 0  -1.903570655792394 0.7941670992780367 0  -2.096429344201276 0.7941670992788055 0  -2.283683909631911 0.7480129941491347 0  -2.454451797383697 0.6583870927157729 0  -2.598808598536385 0.530498126593196 0  -2.70836482052258 0.3717785376349917 0  -2.776753453940975 0.1914525314295042 0  0.4588466633941945 0.2704149791022056 0  -4.424312812173863 0.2760319703992994 0  -3.803977598762586 -0.6841584599595646 0  -0.1330968762779425 -0.6798763971615133 0  2.451109587541276 3.169800318630399e-13 0  -3.563610936250569 0.5929994091167295 0  4.204753319582647 0.2820669554523581 0  -0.4390897559348154 0.6178095532273566 0  -3.041446812595122 1.175550440315544 0  -0.9622132806516797 1.132103015222783 0  1.069493318942931 -0.773608156980569 0  -4.924330687080279 -0.7127064269610045 0  -3.024693497948964 -1.195179289656404 0  -0.9648749555625579 -1.256854520022574 0  -3.443624282349383 -0.2044158249759613 0  -0.5611500783757608 -0.1747080110423833 0  1.60270880116926 0.7487034276124258 0  3.488352576142236 -0.8228939860777884 0  4.816375011670135 -0.8163750116689444 0  3.243628045085357 0.8578172796997985 0  -4.228632884234073 1.228069101636678 0  -2.365220384435482 -1.356128547810356 0  -1.637465979486354 1.3571687267915 0  -1.642380978561139 -1.359365080147485 0  -2.362988915989869 1.356737096243695 0  -5.134120367293631 0.8356299802910161 0  2.077496878467794 -0.9514080034522553 0  4.960859291178299 0.9608592911785537 0  0.3293120056474302 1.148965409695154 0  -5.157560560414062 0.09447106214747865 0  -3.14779387667392 -0.6330563038825547 0  -3.148134455585257 0.4354299640428653 0  -0.8464439673630421 0.4159277415926296 0  -0.9918125625721008 -0.7191748422889824 0  -4.355349213295776 -1.234510499778242 0  1.582074659164868 -0.06850205959954866 0  2.400584045214166 1.204278622181321 0  5.102831660739063 0.03453404176596848 0  4.083259768981113 1.154272958349666 0  -3.992394834362243 -0.1621022234411988 0  0.4290302718942113 -1.225465289645401 0  -3.681487986394671 -1.310544246656267 0  -3.640289698916164 1.187023654838123 0  0.468851680921228 -0.447055967952278 0  3.315209904217932 0.05667935655546536 0  -2.541160649745046 -1.046980928586996 0  -1.45196684542695 1.044189935346116 0  -2.000844595891861 -1.207983108473125 0  -1.453092202970521 -1.061139264918894 0  -2.000050543938391 1.207806685704176 0  -2.548033154566413 1.04418993534851 0  4.13054585796652 -1.232871249381608 0  -0.3301617095463629 1.221692405319566 0  -0.2880491989587189 -1.359626628407983 0  -0.0758941643813178 0.132275811829787 0  2.826389221580753 -1.233168480096227 0  -2.922070412327736 0.7575752117792038 0  1.003070890178416 1.271347915034201 0  -5.319521816151902 -1.310543894393663 0  -1.070407062963812 0.7877698545098388 0  -4.562499863038985 -0.2302396981426722 0  -3.164226661545047 0.07179577787350272 0  -0.9091377812900333 0.132454654016971 0  4.116029045943655 -0.4851826871817362 0  5.316659189209927 -1.316659189208741 0  -0.9498828454673396 -0.4149758979014553 0  -4.037769805263969 0.6896174350675625 0  1.431664772855882 -1.327784137638992 0  -3.646693623568034 0.1600006358878044 0  -2.878371345483476 -0.7910345833001061 0  1.062603041385242 0.2894765870627741 0  -0.547955103783681 0.1635272504420374 0  -4.804809838419659 1.41016301576038 0  -3.042895319571192 -0.3694931303482478 0  -4.59252578392403 0.792267765362792 0  2.823271260730033 -0.5472430318427347 0  -4.28575390662405 -0.7521491832384866 0  -0.5524005545121191 -0.9037367558558163 0  1.815219025072439 1.388812135783969 0  -1.288398729718543 -0.8178399475601057 0  -5.424388493366639 1.35375165044146 0  -2.256991952837567 -1.049538527273222 0  -1.739586738723494 -1.052327527873255 0  -1.738827359988536 1.050180627239116 0  -2.257795730428802 1.049701225145305 0  -0.62222340523776 -0.5483611729237363 0  2.065188519029698 0.5424877383589943 0  0.1055865106318892 0.7347782870471022 0  1.013082573993895 -0.2061877611231605 0  -5.428323520618333 -0.4386412085227075 0  5.374041502384443 -0.5304401760993408 0  3.435185060219232 -1.377658617395091 0  -3.302377238490527 0.8841390072780534 0  -0.9902123298072768 -0.124175295282554 0  0.7186958547669859 0.8724503317343631 0  2.941237214953417 1.390391532351976 0  4.708037787864423 -1.340276032051348 0  5.395029680982659 1.395029680983341 0  3.591022587550188 1.348260650408605 0  2.759385971589342 0.4857447325740718 0  -0.6832705231418494 0.8879387563573758 0  5.437781298507145 0.5981501503262471 0  -2.698603003287285 1.617130043745112 0  -3.463358189947519 -1.013588318179017 0  1.710866040171871 -0.6978716337870808 0  3.642182982762737 0.4555704362064124 0  -2.699802128031161 -1.618310703146212 0  -1.3020054856637 1.619819977935582 0  -2.000000000004996 -1.566396763829867 0  -1.999999999994794 1.566396763830688 0  -1.247812462071684 -1.595232739507426 0  4.59429106759859 1.420052135572917 0  0.9448382581152466 -1.440259145469251 0  -0.116376100998861 -0.2606209011258676 0  -4.774521510507792 0.4245390872783272 0  -2.983910172370106 -0.1208000607277856 0  -3.353983741142061 1.576062863985777 0  -5.473352579109997 0.4917619255280954 0  -4.828650470275986 -1.493148538517745 0  4.639973657165532 -0.2833178611094909 0  -2.660279445404468 0.7699932347178977 0  -1.335045190775955 0.7744876666923373 0  -3.395669172689978 0.2584951122361346 0  2.279110606119369 -1.465899541383697 0  4.734317729212562 0.4520963557364723 0  -0.6334913028224612 1.584213953723378 0  2.121854101359879 -0.4289611127787379 0  -3.474459720833238 -0.4977581316675216 0  -1.066539898844178 0.3411379476537602 0  -3.361849707555382 -1.611428512420182 0  -4.099039818938317 0.3306400369415774 0  -2.935324777364672 0.354721898811665 0  -3.973578595052027 1.482940358734671 0  3.784450148635689 -0.0702780807301525 0  -1.191348122671212 -0.5614501189722798 0  -2.838672605956353 -0.5493179047027598 0  -1.184983441257359 0.5617520886612424 0  -2.811184099847449 0.5574240755049175 0  0.2702752249355158 -0.8003643570420809 0  -0.6945947797857237 -1.593893965175195 0  0.001175881878679056 1.504521009023778 0  0.6072931735145096 1.501814722697789 0  -3.991896293645949 -1.047264188412552 0  -3.734097395159253 -0.3261671578666079 0  -5.539652387691843 -0.8857154182585802 0  -4.395061924111849 1.563293728588296 0  0.2258327611651416 -0.08745142624872881 0  -3.774816634825771 0.8676973328379478 0  2.208484493569073 1.6256686312487 0  0.1309939514660535 -1.566169703482512 0  -5.551414360955331 0.9459842275970113 0  -4.04734138658365 -1.51163984963472 0  -4.947145019546805 -0.3299925153029702 0  4.320410447198621 0.6970857582435144 0  -4.707557346727139 -1.000565649857444 0  1.353711468973986 1.582551234446199 0  1.674156483558973 0.3266252271732694 0  -4.039105552973997 -0.4537604746027087 0  0.01051727619263377 -1.088858357362194 0  -0.2234942609176301 0.8619127912343982 0  -2.95903482691863 0.1219373374385197 0  -4.682467695920681 0.0804575682243254 0  5.535750224195656 -0.1525732643419722 0  -4.290083947414376 -0.0005258314026840717 0  1.136102562417988 0.7655312464039168 0  -2.816589394567214 0.9927597419785312 0  -2.645374456162409 -0.7645902451387543 0  4.18414576655837 1.624276131878667 0  0.7127337088822223 -0.9006358935856398 0  1.972418102153911 0.9727040774616764 0  -2.42199174813501 0.8591219219254587 0  -2.418604734200992 -0.8552987735117754 0  -5.573597213364169 -0.03612430678117123 0  2.024792870869397 0.05574071630590883 0  -1.578875191508968 0.861424470724936 0  -1.54706008231699 -0.8630049102346303 0  3.848662181064435 -1.569601980075533 0  -2.000000000003871 -0.9746445732264465 0  -1.99999999
[...]
<PointData  Vectors="f_22"> 
<DataArray  type="Float64"  Name="f_22"  NumberOfComponents="3" format="ascii">0.0000000000000000e+00 0.0000000000000000e+00 0.0000000000000000e+00  0.0000000000000000e+00 0.0000000000000000e+00 0.0000000000000000e+00  0.0000000000000000e+00 0.0000000000000000e+00 0.0000000000000000e+00  0.0000000000000000e+00 0.0000000000000000e+00 0.0000000000000000e+00  9.9999995857059398e-01 0.0000000000000000e+00 0.0000000000000000e+00  9.9999995857059398e-01 0.0000000000000000e+00 0.0000000000000000e+00  0.0000000000000000e+00 0.0000000000000000e+00 0.0000000000000000e+00  0.0000000000000000e+00 0.0000000000000000e+00 0.0000000000000000e+00  0.0000000000000000e+00 0.0000000000000000e+00 0.0000000000000000e+00  0.0000000000000000e+00 0.0000000000000000e+00 0.0000000000000000e+00  0.0000000000000000e+00 0.0000000000000000e+00 0.0000000000000000e+00  0.0000000000000000e+00 0.0000000000000000e+00 0.0000000000000000e+00  0.0000000000000000e+00 0.0000000000000000e+00 0.0000000000000000e+00  0.0000000000000000e+00 0.0000000000000000e+00 0.0000000000000000e+00  0.0000000000000000e+00 0.0000000000000000e+00 0.0000000000000000e+00  0.0000000000000000e+00 0.0000000000000000e+00 0.0000000000000000e+00  0.0000000000000000e+00 0.0000000000000000e+00 0.0000000000000000e+00  0.0000000000000000e+00 0.0000000000000000e+00 0.0000000000000000e+00  0.0000000000000000e+00 0.0000000000000000e+00 0.0000000000000000e+00  0.0000000000000000e+00 0.0000000000000000e+00 0.0000000000000000e+00  0.0000000000000000e+00 0.0000000000000000e+00 0.0000000000000000e+00  0.0000000000000000e+00 0.0000000000000000e+00 0.0000000000000000e+00  0.0000000000000000e+00 0.0000000000000000e+00 0.0000000000000000e+00  0.0000000000000000e+00 0.0000000000000000e+00 0.0000000000000000e+00  0.0000000000000000e+00 0.0000000000000000e+00 0.0000000000000000e+00  0.0000000000000000e+00 0.0000000000000000e+00 0.0000000000000000e+00  0.0000000000000000e+00 0.0000000000000000e+00 0.0000000000000000e+00  0.0000000000000000e+00 0.0000000000000000e+00 0.0000000000000000e+00  0.0000000000000000e+00 0.0000000000000000e+00 0.0000000000000000e+00  3.2679289513871690e-01 -2.0723055387585683e-04 0.0000000000000000e+00  5.5803212375320310e-01 -4.1270369656899166e-04 0.0000000000000000e+00  6.8913878900340808e-01 -3.8748228818189146e-04 0.0000000000000000e+00  7.3103184748082983e-01 -3.1771635188415169e-05 0.0000000000000000e+00  6.8908507193473989e-01 3.3427626426699213e-04 0.0000000000000000e+00  5.5793444368010281e-01 4.0968407016836120e-04 0.0000000000000000e+00  3.2666094289378639e-01 1.9145979215223451e-04 0.0000000000000000e+00  0.0000000000000000e+00 0.0000000000000000e+00 0.0000000000000000e+00  0.0000000000000000e+00 0.0000000000000000e+00 0.0000000000000000e+00  0.0000000000000000e+00 0.0000000000000000e+00 0.0000000000000000e+00  0.0000000000000000e+00 0.0000000000000000e+00 0.0000000000000000e+00  0.0000000000000000e+00 0.0000000000000000e+00 0.0000000000000000e+00  0.0000000000000000e+00 0.0000000000000000e+00 0.0000000000000000e+00  0.0000000000000000e+00 0.0000000000000000e+00 0.0000000000000000e+00  0.0000000000000000e+00 0.0000000000000000e+00 0.0000000000000000e+00  0.0000000000000000e+00 0.0000000000000000e+00 0.0000000000000000e+00  0.0000000000000000e+00 0.0000000000000000e+00 0.0000000000000000e+00  0.0000000000000000e+00 0.0000000000000000e+00 0.0000000000000000e+00  0.0000000000000000e+00 0.0000000000000000e+00 0.0000000000000000e+00  0.0000000000000000e+00 0.0000000000000000e+00 0.0000000000000000e+00  0.0000000000000000e+00 0.0000000000000000e+00 0.0000000000000000e+00  0.0000000000000000e+00 0.0000000000000000e+00 0.0000000000000000e+00  0.0000000000000000e+00 0.0000000000000000e+00 0.0000000000000000e+00  0.0000000000000000e+00 0.0000000000000000e+00 0.0000000000000000e+00  0.0000000000000000e+00 0.0000000000000000e+00 0.0000000000000000e+00  0.0000000000000000e+00 0.0000000000000000e+00 0.0000000000000000e+00  0.0000000000000000e+00 0.0000000000000000e+00 0.0000000000000000e+00  0.0000000000000000e+00 0.0000000000000000e+00 0.0000000000000000e+00  0.0000000000000000e+00 0.0000000000000000e+00 0.0000000000000000e+00  0.0000000000000000e+00 0.0000000000000000e+00 0.0000000000000000e+00  3.2462823411815483e-01 -7.5149592838369850e-04 0.0000000000000000e+00  5.5691405174959363e-01 -1.2945652809860837e-03 0.0000000000000000e+00  6.9071327219468903e-01 -1.0452295449131974e-03 0.0000000000000000e+00  7.3431561091565778e-01 -3.4633308505008925e-05 0.0000000000000000e+00  6.9137344847290072e-01 1.1563763352004587e-03 0.0000000000000000e+00  5.5714432320535723e-01 1.3573565777687390e-03 0.0000000000000000e+00  3.2467126070609836e-01 7.9196495848473411e-04 0.0000000000000000e+00  9.9999995857059398e-01 0.0000000000000000e+00 0.0000000000000000e+00  9.9999995857059398e-01 0.0000000000000000e+00 0.0000000000000000e+00  9.9999995857059398e-01 0.0000000000000000e+00 0.0000000000000000e+00  9.9999995857059398e-01 0.0000000000000000e+00 0.0000000000000000e+00  9.9999995857059398e-01 0.0000000000000000e+00 0.0000000000000000e+00  9.9999995857059398e-01 0.0000000000000000e+00 0.0000000000000000e+00  9.9999995857059398e-01 0.0000000000000000e+00 0.0000000000000000e+00  9.9999995857059398e-01 0.0000000000000000e+00 0.0000000000000000e+00  9.9999995857059398e-01 0.0000000000000000e+00 0.0000000000000000e+00  9.9999995857059398e-01 0.0000000000000000e+00 0.0000000000000000e+00  9.9999995857059398e-01 0.0000000000000000e+00 0.0000000000000000e+00  9.9999995857059398e-01 0.0000000000000000e+00 0.0000000000000000e+00  9.9999995857059398e-01 0.0000000000000000e+00 0.0000000000000000e+00  9.9999995857059398e-01 0.0000000000000000e+00 0.0000000000000000e+00  9.9999995857059398e-01 0.0000000000000000e+00 0.0000000000000000e+00  9.9999995857059398e-01 0.0000000000000000e+00 0.0000000000000000e+00  9.9999995857059398e-01 0.0000000000000000e+00 0.0000000000000000e+00  9.9999995857059398e-01 0.0000000000000000e+00 0.0000000000000000e+00  9.9999995857059398e-01 0.0000000000000000e+00 0.0000000000000000e+00  9.9999995857059398e-01 0.0000000000000000e+00 0.0000000000000000e+00  9.9999995857059398e-01 0.0000000000000000e+00 0.0000000000000000e+00  9.9999995857059398e-01 0.0000000000000000e+00 0.0000000000000000e+00  9.9999995857059398e-01 0.0000000000000000e+00 0.0000000000000000e+00  9.9999995857059398e-01 0.0000000000000000e+00 0.0000000000000000e+00  8.2529837070525469e-01 2.1169276340447844e-02 0.0000000000000000e+00  7.3290408740735868e-01 -7.1365371846313797e-03 0.0000000000000000e+00  6.6451182463861225e-01 4.2388958694547806e-02 0.0000000000000000e+00  7.1515689278099248e-01 -6.7430481803749720e-02 0.0000000000000000e+00  7.5912556135661879e-01 1.4699809332849292e-05 0.0000000000000000e+00  7.0189987482386396e-01 -6.2233364664229907e-02 0.0000000000000000e+00  7.2210651931140013e-01 1.6776757670584768e-03 0.0000000000000000e+00  7.7573246019669850e-01 7.5211221981745013e-02 0.0000000000000000e+00  3.8822744565210121e-01 -1.1953921826283048e-01 0.0000000000000000e+00  3.6456204605566273e-01 1.1611301718613924e-01 0.0000000000000000e+00  6.3406185843234586e-01 -3.0925356349807559e-02 0.0000000000000000e+00  6.4694463034262795e-01 5.5785125624100828e-03 0.0000000000000000e+00  3.7353609989172692e-01 1.1874431777952432e-01 0.0000000000000000e+00  2.4628896588102539e-01 -1.0165156156038137e-01 0.0000000000000000e+00  8.0918987010430399e-01 3.3999432701643233e-02 0.0000000000000000e+00  9.4671511240838802e-01 -2.0201725060034356e-02 0.0000000000000000e+00  6.4020542481859588e-01 2.1007553737600781e-02 0.0000000000000000e+00  6.1445777702150850e-01 -5.3587393839837957e-03 0.0000000000000000e+00  6.1711357353051077e-01 -1.7268944685020749e-03 0.0000000000000000e+00  6.0302103557895004e-01 6.3403908955183465e-03 0.0000000000000000e+00  4.5157312586277176e-01 -1.5413944163253330e-02 0.0000000000000000e+00  1.0521263511114748e-01 1.2132689780063613e-01 0.0000000000000000e+00  5.5465720554576090e-02 3.1839419428787499e-02 0.0000000000000000e+00  5.3198042952092447e-02 -3.0513596313857246e-02 0.0000000000000000e+00  1.0426817259792652e-01 -1.2102898028790389e-01 0.0000000000000000e+00  6.1164576732090725e-01 -3.8006154360097463e-03 0.0000000000000000e+00  5.6465290562989978e-01 -1.4275485537133826e-02 0.0000000000000000e+00  5.7128576349742310e-01 1.3691084467626518e-03 0.0000000000000000e+00  4.3177002528442993e-01 4.8089982163165762e-02 0.0000000000000000e+00  7.3547182453539595e-01 -5.4713543134039442e-04 0.0000000000000000e+00  7.1029976213359347e-01 1.3389922591712339e-01 0.0000000000000000e+00  8.0014300972403030e-01 -1.1036814800185261e-01 0.0000000000000000e+00  9.2964942504181536e-01 4.5607122997924611e-02 0.0000000000000000e+00  7.8163803483698402e-01 -9.5055835531086916e-02 0.0000000000000000e+00  4.5130365872466549e-01 1.2306216427104319e-02 0.0000000000000000e+00  7.8482361516706545e-01 -2.7807994355373532e-03 0.0000000000000000e+00  4.5956756601589077e-01 8.6460743575775493e-03 0.0000000000000000e+00  7.3217594328733504e-01 6.6057706514685455e-05 0.0000000000000000e+00  4.9445766641559469e-01 2.5996693869377334e-03 0.0000000000000000e+00  7.6000075290104330e-01 9.7730791672802197e-03 0.0000000000000000e+00  3.9219862758259733e-01 -4.0502783748744782e-02 0.0000000000000000e+00  3.8789814055018873e-01 3.4661083460775344e-02 0.0000000000000000e+00  4.4870960523792169e-01 -4.4884686862665564e-02 0.0000000000000000e+00  7.7842439586752155e-01 -3.2975958505659729e-02 0.0000000000000000e+00  7.4379900654159581e-01 7.0435552847292128e-04 0.0000000000000000e+00  3.6903128760207088e-01 2.0850519937572298e-01 0.0000000000000000e+00  4.3670544488252427e-01 1.0160076449061399e-01 0.0000000000000000e+00  1.6526627756810783e-01 6.0665095633282394e-02 0.0000000000000000e+00  4.1305625523471090e-01 -1.0050996030161111e-01 0.0000000000000000e+00  1.6541270197941585e-01 -6.0371223898804269e-02 0.0000000000000000e+00  3.7303355187763060e-01 -2.0891265490725414e-01 0.0000000000000000e+00  4.5969432466601873e-01 -2.2389649582302776e-03 0.0000000000000000e+00  3.4403767743194069e-01 7.6002286691530321e-02 0.0000000000000000e+00  2.5542497011237258e-01 -5.9818324381493919e-02 0.0000000000000000e+00  8.9556346043652979e-01 1.4258336322383838e-02 0.0000000000000000e+00  4.5102274956149246e-01 -6.0387810670348516e-03 0.0000000000000000e+00  6.4309335772673260e-01 -1.9277100058377053e-01 0.0000000000000000e+00  3.9320016663938884e-01 2.3785502341700290e-02 0.0000000000000000e+00  4.2302866480540047e-01 1.8651982253965226e-03 0.0000000000000000e+00  7.3240494052400484e-01 1.0445899943425678e-01 0.0000000000000000e+00  7.3457017792339030e-01 4.6768476701147055e-03 0.0000000000000000e+00  8.8445880492579243e-01 -2.0486827003372225e-02 0.0000000000000000e+00  9.8747468158546214e-01 9.1673808888926098e-03 0.0000000000000000e+00  6.9461738281869279e-01 -2.7833486212217482e-03 0.0000000000000000e+00  4.2281267178953724e-01 -5.4017260380539534e-04 0.0000000000000000e+00  9.4683027199928271e-01 -3.9347710741732551e-02 0.0000000000000000e+00  6.5887416784834063e-01 -2.7742181936205271e-02 0.0000000000000000e+00  3.7897733368460357e-01 -1.5006680845878046e-02 0.0000000000000000e+00  7.8832427249295955e-01 -1.8169647753291714e-02 0.0000000000000000e+00  6.1837634579953349e-01 2.0221206315625223e-01 0.0000000000000000e+00  7.8485187837596593e-01 1.5993823835591229e-02 0.0000000000000000e+00  9.4674581950025372e-01 1.8964595749647220e-02 0.0000000000000000e+00  3.6898453389298741e-01 -3.8834581353959963e-03 0.0000000000000000e+00  8.4780105564847785e-01 1.1586865364941987e-01 0.0000000000000000e+00  6.2514616409825974e-01 -1.0424990587339141e-02 0.0000000000000000e+00  6.8952686080168302e-01 -7.6862648519311514e-03 0.0000000000000000e+00  6.3828859664236837e-01 1.8218269016857511e-02 0.0000000000000000e+00  5.8336535186506755e-01 -1.0079586381734261e-01 0.0000000000000000e+00  3.5786149842627901e-01 9.5513114798373155e-03 0.0000000000000000e+00  7.3861666977606533e-01 -9.9292557868284032e-02 0.0000000000000000e+00  4.0171254072691071e-01 -1.4409834599870984e-03 0.0000000000000000e+00  3.4068743625341236e-01 1.5146919472751305e-01 0.0000000000000000e+00  4.0032859983044106e-01 -4.2048740261065469e-02 0.0000000000000000e+00  4.0393694591757179e-01 4.2486446368420125e-02 0.0000000000000000e+00  3.4039368876831383e-01 -1.5175718415344666e-01 0.0000000000000000e+00  8.3649961123834371e-01 -7.0869839908161231e-02 0.0000000000000000e+00  6.9854459018088200e-01 1.3146434357869795e-02 0.0000000000000000e+00  6.7275092233125067e-01 5.9432294843056920e-02 0.0000000000000000e+00  8.0067964643729028e-01 -1.2066235594402017e-02 0.0000000000000000e+00  7.0199861977218103e-01 1.5745666917549408e-03 0.0000000000000000e+00  6.8413136112056294e-01 -8.2209723249365588e-04 0.0000000000000000e+00  3.8520900760274718e-01 -2.8263352050282432e-03 0.0000000000000000e+00  5.8193245219009537e-01 -1.0403292611115834e-01 0.0000000000000000e+00  9.9325454780719902e-01 -6.0956127964880988e-03 0.0000000000000000e+00  5.9067859245525656e-01 4.0176038344258931e-02 0.0000000000000000e+00  3.7469777147404892e-01 3.9751360146574573e-03 0.0000000000000000e+00  4.0985574485657256e-01 -1.0160038803315027e-03 0.0000000000000000e+00  3.8307270707005031e-01 4.1528199957350533e-04 0.0000000000000000e+00  4.0148381935180061e-01 2.7211589547626123e-03 0.0000000000000000e+00  7.0314389797074839e-01 7.5632908136648797e-03 0.0000000000000000e+00  6.0144059458820465e-01 1.0782974073582341e-01 0.0000000000000000e+00  6.7096088123994169e-01 7.5980271363848063e-04 0.0000000000000000e+00  8.2744748477162455e-02 -5.2498759584727744e-02 0.0000000000000000e+00  5.2430318937103282e-01 7.3729389830362271e-02 0.0000000000000000e+00  6.5725365171115979e-01 -1.9114632997306424e-02 0.0000000000000000e+00  7.0190996574021647e-01 3.8388982354407675e-03 0.0000000000000000e+00  8.2583584731175969e-02 5.2172079055686167e-02 0.0000000000000000e+00  -4.1497200149169203e-02 3.3200012123170072e-02 0.0000000000000000e+00  -5.5122040024427610e-02 3.4665706872677580e-02 0.0000000000000000e+00  -5.5175613888868574e-02 -3.4630607816828744e-02 0.0000000000000000e+00  -2.4283565703308498e-02 -3.9109109187293684e-02 0.0000000000000000e+00  3.6852356765069372e-01 9.1445675101188464e-04 0.0000000000000000e+00  3.0145534377468913e-01 -1.7190794942269532e-02 0.0000000000000000e+00  8.7888435690858602e-01 -2.8348456144801332e-02 0.0000000000000000e+00  7.0771333870672481e-01 -5.3846124757688466e-03 0.0000000000000000e+00  9.3535740017211921e-01 4.2800539518044023e-02 0.0000000000000000e+00  2.1560910147709697e-01 -2.8068294008518912e-02 0.0000000000000000e+00  6.9293261887673319e-01 -1.4969223596707981e-03 0.0000000000000000e+00  3.2375267393234952e-01 3.0532865716402682e-03 0.0000000000000000e+00  7.2006740068531661e-01 -1.1586712047328227e-03 0.0000000000000000e+00  6.4016832630911069e-01 -2.2348010401690860e-01 0.0000000000000000e+00  8.0036588240961293e-01 8.5017058669099699e-02 0.0000000000000000e+00  8.0760730544845694e-01 -4.6068681134759738e-02 0.0000000000000000e+00  3.2553621179470077e-01 -5.2804512483893649e-03 0.0000000000000000e+00  6.9827097077698330e-01 1.5048081276292644e-03 0.0000000000000000e+00  8.2594049003331824e-02 4.1087311237701700e-02 0.0000000000000000e+00  7.2351066012484067e-01 -1.0845658736090094e-02 0.0000000000000000e+00  7.3819101702180023e-01 6.6572771700292924e-02 0.0000000000000000e+00  9.8054014750764296e-01 1.9583700621937303e-02 0.0000000000000000e+00  1.9818173229803043e-01 2.3744219898700399e-02 0.0000000000000000e+00  7.3605028269139627e-01 -1.5276703413368103e-02 0.0000000000000000e+00  8.8286059958872531e-01 -1.2305660211683048e-01 0.0000000000000000e+00  3.1142332436174447e-01 -1.4040760897659110e-02 0.0000000000000000e+00  7.3855692335174206e-01 -6.4011609404042707e-04 0.0000000000000000e+00  9.3622005585461310e-01 -4.5049460582002869e-02 0.0000000000000000e+00  7.9690005832946320e-01 1.8324488995115290e-01 0.0000000000000000e+00  9.3453004892819191e-01 4.6127005004730805e-02 0.0000000000000000e+00  7.9840266788746284e-01 -1.8682823044030938e-01 0.0000000000000000e+00  6.3214728728822933e-01 -5.4629972123846134e-02 0.0000000000000000e+00  6.7937385606989753e-02 -4.1329392340177011e-02 0.0000000000000000e+00  2.0271853388962943e-01 3.3313794474093571e-02 0.0000000000000000e+00  2.5106960524250960e-01 1.9571257093276544e-02 0.0000000000000000e+00  5.2823969966346529e-01 2.8378108994657900e-02 0.0000000000000000e+00  7.5764440948234368e-01 2.9934994623213015e-02 0.0000000000000000e+00  5.9624549399135629e-01 1.8710316683501014e-03 0.0000000000000000e+00  2.7814049008147768e-01 -5.0664083796480210e-03 0.0000000000000000e+00  8.6988829442909599e-01 -7.9896033301741047e-03 0.0000000000000000e+00  5.9864444373061687e-01 -4.5856992890860378e-02 0.0000000000000000e+00  2.3577328110312876e-01 3.0334065194722567e-03 0.0000000000000000e+00  1.8257342939760110e-01 -2.3958602250168430e-02 0.0000000000000000e+00  5.7596731394438516e-01 -1.7978801872629757e-03 0.0000000000000000e+00  2.9842627190604526e-01 1.1274511764476199e-02 0.0000000000000000e+00  7.1931392431609609e-01 3.1210182421724303e-03 0.0000000000000000e+00  6.4931854647650811e-01 2.7282907975913870e-03 0.0000000000000000e+00  5.5500300254099844e-01 8.1964929838966964e-03 0.0000000000000000e+00  2.4109814984096437e-01 7.6194780212486884e-03 0.0000000000000000e+00  7.5362524270971221e-01 1.1889606188496960e-02 0.0000000000000000e+00  7.1755793399439971e-01 2.2080952173105739e-02 0.0000000000000000e+00  4.5594212455232941e-01 -6.4943546727945362e-02 0.0000000000000000e+00  6.0534999580458138e-01 8.0503161299865567e-02 0.0000000000000000e+00  9.4436443561821704e-01 -4.3935702018493922e-02 0.0000000000000000e+00  7.4099838880070423e-01 -1.2110642316171378e-03 0.0000000000000000e+00  7.2760797312055148e-01 -2.5970616209860636e-04 0.0000000000000000e+00  7.5205564157836458e-01 1.6334082108937423e-05 0.0000000000000000e+00  6.3677601785687687e-01 2.9532252531339447e-02 0.0000000000000000e+00  4.6531413763390150e-01 -1.9361982514303272e-01 0.0000000000000000e+00  6.4779758155227130e-01 2.2113940085160766e-01 0.0000000000000000e+00  2.5161934962622395e-01 6.7229429010011964e-04 0.0000000000000000e+00  5.7674233296964805e-01 -4.0440265953641766e-02 0.0000000000000000e+00  5.5522524549790475e-01 1.5244972059284776e-02 0.0000000000000000e+00  5.8405673846913786e-01 -1.8323383673098292e-01 0.0000000000000000e+00  5.9130594398754244e-01 1.8013549399089257e-01 0.0000000000000000e+00  7.3461695660569182e-01 6.2528400682006869e-05 0.0000000000000000e+00  7.6957549935121405e-01 1.7041595901423469e-03 0.0000000000000000e+00  7.3566017819559892e-01 7.2200118668173954e-02 0.0000000000000000e+00  7.2634207728439948e-01 -7.7719550459572309e-02 0.0000000000000000e+00  2.8241107963637024e-01 -1.1182729089467271e-03 0.0000000000000000e+00  5.0365106591007713e-01 3.6329785487323837e-02 0.0000000000000000e+00  5.0363763604467837e-01 -3.6355694183312165e-02 0.0000000000000000e+00  2.6009237829314569e-01 -1.3818189449896714e-01 0.0000000000000000e+00  5.7680382345105419e-01 4.5514189499115164e-03 0.0000000000000000e+00  5.0299659980851208e-01 1.2094936625116813e-01 0.0000000000000000e+00  8.3600632188553547e-01 -2.7466465114629043e-03 0.0000000000000000e+00  5.6259117404309433e-01 6.0334776852378829e-04 0.0000000000000000e+00  5.8154642665950018e-01 -6.6003016651394253e-04 0.0000000000000000e+00  5.5918633543461371e-01 8.0719482113249252e-03 0.0000000000000000e+00  1.7678306804523949e-01 9.1677723359399874e-02 0.0000000000000000e+00  4.6648485942732498e-01 -1.2234194733266521e-01 0.0000000000000000e+00  5.9962034995099500e-01 -1.0585164449449298e-02 0.0000000000000000e+00  6.0806607977172344e-01 -2.6385492243294795e-03 0.0000000000000000e+00  2.5270063905128209e-01 -6.5137895573149490e-04 0.0000000000000000e+00  2.3656583662493916e-01 -4.7783003005939439e-03 0.0000000000000000e+00  7.8955954419029006e-01 -4.3279372329233630e-0