<?xml version="1.0"?>
<VTKFile type="UnstructuredGrid"  version="0.1"  >
<UnstructuredGrid>
<Piece  NumberOfPoints="406" NumberOfCells="722">
<Points>
<DataArray  type="Float64"  NumberOfComponents="3"  format="ascii">-6 -2 0  -6 2 0  6 2 0  6 -2 0  -2.8 0 0  -1.2 0 0  -5.500000000001853 -2 0  -5.000000000003705 -2 0  -4.500000000005556 -2 0  -4.000000000007409 -2 0  -3.50000000000926 -2 0  -3.000000000011112 -2 0  -2.500000000012963 -2 0  -2.000000000014814 -2 0  -1.500000000016665 -2 0  -1.000000000018516 -2 0  -0.5000000000203677 -2 0  -2.204547655537681e-11 -2 0  0.4999999999796305 -2 0  0.9999999999814779 -2 0  1.499999999983327 -2 0  1.999999999985175 -2 0  2.499999999987029 -2 0  2.999999999988882 -2 0  3.499999999990735 -2 0  3.999999999992589 -2 0  4.49999999999444 -2 0  4.999999999996293 -2 0  5.499999999998147 -2 0  6 -1.500000000001387 0  6 -1.000000000002774 0  6 -0.5000000000041616 0  6 -5.505595979116151e-12 0  6 0.4999999999958384 0  6 0.9999999999972258 0  6 1.499999999998613 0  5.500000000001853 2 0  5.000000000003705 2 0  4.500000000005556 2 0  4.000000000007409 2 0  3.50000000000926 2 0  3.000000000011112 2 0  2.500000000012963 2 0  2.000000000014814 2 0  1.500000000016665 2 0  1.000000000018516 2 0  0.5000000000203677 2 0  2.204547655537681e-11 2 0  -0.4999999999796305 2 0  -0.9999999999814779 2 0  -1.499999999983327 2 0  -1.999999999985175 2 0  -2.499999999987029 2 0  -2.999999999988882 2 0  -3.499999999990735 2 0  -3.999999999992589 2 0  -4.49999999999444 2 0  -4.999999999996293 2 0  -5.499999999998147 2 0  -6 1.500000000001387 0  -6 1.000000000002774 0  -6 0.5000000000041616 0  -6 5.505595979116151e-12 0  -6 -0.4999999999958384 0  -6 -0.9999999999972258 0  -6 -1.499999999998613 0  -2.776753453941174 -0.1914525314286965 0  -2.708364820523325 -0.3717785376335722 0  -2.598808598538216 -0.5304981265911284 0  -2.454451797386757 -0.65838709271366 0  -2.283683909636528 -0.748012994147384 0  -2.096429344207466 -0.7941670992780535 0  -1.903570655798842 -0.7941670992788195 0  -1.716316090368095 -0.7480129941491368 0  -1.545548202616307 -0.6583870927157747 0  -1.401191401463757 -0.530498126593356 0  -1.291635179477527 -0.371778537635196 0  -1.223246546059047 -0.1914525314295925 0  -1.223246546058803 0.1914525314286035 0  -1.291635179476594 0.3717785376334188 0  -1.401191401461634 0.5304981265909601 0  -1.545548202612898 0.6583870927134221 0  -1.716316090363093 0.7480129941472402 0  -1.903570655792394 0.7941670992780367 0  -2.096429344201276 0.7941670992788055 0  -2.283683909631911 0.7480129941491347 0  -2.454451797383697 0.6583870927157729 0  -2.598808598536385 0.530498126593196 0  -2.70836482052258 0.3717785376349917 0  -2.776753453940975 0.1914525314295042 0  0.4588466633941945 0.2704149791022056 0  -4.424312812173863 0.2760319703992994 0  -3.803977598762586 -0.6841584599595646 0  -0.1330968762779425 -0.6798763971615133 0  2.451109587541276 3.169800318630399e-13 0  -3.563610936250569 0.5929994091167295 0  4.204753319582647 0.2820669554523581 0  -0.4390897559348154 0.6178095532273566 0  -3.041446812595122 1.175550440315544 0  -0.9622132806516797 1.132103015222783 0  1.069493318942931 -0.773608156980569 0  -4.924330687080279 -0.7127064269610045 0  -3.024693497948964 -1.195179289656404 0  -0.9648749555625579 -1.256854520022574 0  -3.443624282349383 -0.2044158249759613 0  -0.5611500783757608 -0.1747080110423833 0  1.60270880116926 0.7487034276124258 0  3.488352576142236 -0.8228939860777884 0  4.816375011670135 -0.8163750116689444 0  3.243628045085357 0.8578172796997985 0  -4.228632884234073 1.228069101636678 0  -2.365220384435482 -1.356128547810356 0  -1.637465979486354 1.3571687267915 0  -1.642380978561139 -1.359365080147485 0  -2.362988915989869 1.356737096243695 0  -5.134120367293631 0.8356299802910161 0  2.077496878467794 -0.9514080034522553 0  4.960859291178299 0.9608592911785537 0  0.3293120056474302 1.148965409695154 0  -5.157560560414062 0.09447106214747865 0  -3.14779387667392 -0.6330563038825547 0  -3.148134455585257 0.4354299640428653 0  -0.8464439673630421 0.4159277415926296 0  -0.9918125625721008 -0.7191748422889824 0  -4.355349213295776 -1.234510499778242 0  1.582074659164868 -0.06850205959954866 0  2.400584045214166 1.204278622181321 0  5.102831660739063 0.03453404176596848 0  4.083259768981113 1.154272958349666 0  -3.992394834362243 -0.1621022234411988 0  0.4290302718942113 -1.225465289645401 0  -3.681487986394671 -1.310544246656267 0  -3.640289698916164 1.187023654838123 0  0.468851680921228 -0.447055967952278 0  3.315209904217932 0.05667935655546536 0  -2.541160649745046 -1.046980928586996 0  -1.45196684542695 1.044189935346116 0  -2.000844595891861 -1.207983108473125 0  -1.453092202970521 -1.061139264918894 0  -2.000050543938391 1.207806685704176 0  -2.548033154566413 1.04418993534851 0  4.13054585796652 -1.232871249381608 0  -0.3301617095463629 1.221692405319566 0  -0.2880491989587189 -1.359626628407983 0  -0.0758941643813178 0.132275811829787 0  2.826389221580753 -1.233168480096227 0  -2.922070412327736 0.7575752117792038 0  1.003070890178416 1.271347915034201 0  -5.319521816151902 -1.310543894393663 0  -1.070407062963812 0.7877698545098388 0  -4.562499863038985 -0.2302396981426722 0  -3.164226661545047 0.07179577787350272 0  -0.9091377812900333 0.132454654016971 0  4.116029045943655 -0.4851826871817362 0  5.316659189209927 -1.316659189208741 0  -0.9498828454673396 -0.4149758979014553 0  -4.037769805263969 0.6896174350675625 0  1.431664772855882 -1.327784137638992 0  -3.646693623568034 0.1600006358878044 0  -2.878371345483476 -0.7910345833001061 0  1.062603041385242 0.2894765870627741 0  -0.547955103783681 0.1635272504420374 0  -4.804809838419659 1.41016301576038 0  -3.042895319571192 -0.3694931303482478 0  -4.59252578392403 0.792267765362792 0  2.823271260730033 -0.5472430318427347 0  -4.28575390662405 -0.7521491832384866 0  -0.5524005545121191 -0.9037367558558163 0  1.815219025072439 1.388812135783969 0  -1.288398729718543 -0.8178399475601057 0  -5.424388493366639 1.35375165044146 0  -2.256991952837567 -1.049538527273222 0  -1.739586738723494 -1.052327527873255 0  -1.738827359988536 1.050180627239116 0  -2.257795730428802 1.049701225145305 0  -0.62222340523776 -0.5483611729237363 0  2.065188519029698 0.5424877383589943 0  0.1055865106318892 0.7347782870471022 0  1.013082573993895 -0.2061877611231605 0  -5.428323520618333 -0.4386412085227075 0  5.374041502384443 -0.5304401760993408 0  3.435185060219232 -1.377658617395091 0  -3.302377238490527 0.8841390072780534 0  -0.9902123298072768 -0.124175295282554 0  0.7186958547669859 0.8724503317343631 0  2.941237214953417 1.390391532351976 0  4.708037787864423 -1.340276032051348 0  5.395029680982659 1.395029680983341 0  3.591022587550188 1.348260650408605 0  2.759385971589342 0.4857447325740718 0  -0.6832705231418494 0.8879387563573758 0  5.437781298507145 0.5981501503262471 0  -2.698603003287285 1.617130043745112 0  -3.463358189947519 -1.013588318179017 0  1.710866040171871 -0.6978716337870808 0  3.642182982762737 0.4555704362064124 0  -2.699802128031161 -1.618310703146212 0  -1.3020054856637 1.619819977935582 0  -2.000000000004996 -1.566396763829867 0  -1.999999999994794 1.566396763830688 0  -1.247812462071684 -1.595232739507426 0  4.59429106759859 1.420052135572917 0  0.9448382581152466 -1.440259145469251 0  -0.116376100998861 -0.2606209011258676 0  -4.774521510507792 0.4245390872783272 0  -2.983910172370106 -0.1208000607277856 0  -3.353983741142061 1.576062863985777 0  -5.473352579109997 0.4917619255280954 0  -4.828650470275986 -1.493148538517745 0  4.639973657165532 -0.2833178611094909 0  -2.660279445404468 0.7699932347178977 0  -1.335045190775955 0.7744876666923373 0  -3.395669172689978 0.2584951122361346 0  2.279110606119369 -1.465899541383697 0  4.734317729212562 0.4520963557364723 0  -0.6334913028224612 1.584213953723378 0  2.121854101359879 -0.4289611127787379 0  -3.474459720833238 -0.4977581316675216 0  -1.066539898844178 0.3411379476537602 0  -3.361849707555382 -1.611428512420182 0  -4.099039818938317 0.3306400369415774 0  -2.935324777364672 0.354721898811665 0  -3.973578595052027 1.482940358734671 0  3.784450148635689 -0.0702780807301525 0  -1.191348122671212 -0.5614501189722798 0  -2.838672605956353 -0.5493179047027598 0  -1.184983441257359 0.5617520886612424 0  -2.811184099847449 0.5574240755049175 0  0.2702752249355158 -0.8003643570420809 0  -0.6945947797857237 -1.593893965175195 0  0.001175881878679056 1.504521009023778 0  0.6072931735145096 1.501814722697789 0  -3.991896293645949 -1.047264188412552 0  -3.734097395159253 -0.3261671578666079 0  -5.539652387691843 -0.8857154182585802 0  -4.395061924111849 1.563293728588296 0  0.2258327611651416 -0.08745142624872881 0  -3.774816634825771 0.8676973328379478 0  2.208484493569073 1.6256686312487 0  0.1309939514660535 -1.566169703482512 0  -5.551414360955331 0.9459842275970113 0  -4.04734138658365 -1.51163984963472 0  -4.947145019546805 -0.3299925153029702 0  4.320410447198621 0.6970857582435144 0  -4.707557346727139 -1.000565649857444 0  1.353711468973986 1.582551234446199 0  1.674156483558973 0.3266252271732694 0  -4.039105552973997 -0.4537604746027087 0  0.01051727619263377 -1.088858357362194 0  -0.2234942609176301 0.8619127912343982 0  -2.95903482691863 0.1219373374385197 0  -4.682467695920681 0.0804575682243254 0  5.535750224195656 -0.1525732643419722 0  -4.290083947414376 -0.0005258314026840717 0  1.136102562417988 0.7655312464039168 0  -2.816589394567214 0.9927597419785312 0  -2.645374456162409 -0.7645902451387543 0  4.18414576655837 1.624276131878667 0  0.7127337088822223 -0.9006358935856398 0  1.972418102153911 0.9727040774616764 0  -2.42199174813501 0.8591219219254587 0  -2.418604734200992 -0.8552987735117754 0  -5.573597213364169 -0.03612430678117123 0  2.024792870869397 0.05574071630590883 0  -1.578875191508968 0.861424470724936 0  -1.54706008231699 -0.8630049102346303 0  3.848662181064435 -1.569601980075533 0  -2.000000000003871 -0.9746445732264465 0  -1.99999999
[...]
<PointData  Vectors="f_22"> 
<DataArray  type="Float64"  Name="f_22"  NumberOfComponents="3" format="ascii">0.0000000000000000e+00 0.0000000000000000e+00 0.0000000000000000e+00  0.0000000000000000e+00 0.0000000000000000e+00 0.0000000000000000e+00  0.0000000000000000e+00 0.0000000000000000e+00 0.0000000000000000e+00  0.0000000000000000e+00 0.0000000000000000e+00 0.0000000000000000e+00  9.9999995789957352e-01 0.0000000000000000e+00 0.0000000000000000e+00  9.9999995789957352e-01 0.0000000000000000e+00 0.0000000000000000e+00  0.0000000000000000e+00 0.0000000000000000e+00 0.0000000000000000e+00  0.0000000000000000e+00 0.0000000000000000e+00 0.0000000000000000e+00  0.0000000000000000e+00 0.0000000000000000e+00 0.0000000000000000e+00  0.0000000000000000e+00 0.0000000000000000e+00 0.0000000000000000e+00  0.0000000000000000e+00 0.0000000000000000e+00 0.0000000000000000e+00  0.0000000000000000e+00 0.0000000000000000e+00 0.0000000000000000e+00  0.0000000000000000e+00 0.0000000000000000e+00 0.0000000000000000e+00  0.0000000000000000e+00 0.0000000000000000e+00 0.0000000000000000e+00  0.0000000000000000e+00 0.0000000000000000e+00 0.0000000000000000e+00  0.0000000000000000e+00 0.0000000000000000e+00 0.0000000000000000e+00  0.0000000000000000e+00 0.0000000000000000e+00 0.0000000000000000e+00  0.0000000000000000e+00 0.0000000000000000e+00 0.0000000000000000e+00  0.0000000000000000e+00 0.0000000000000000e+00 0.0000000000000000e+00  0.0000000000000000e+00 0.0000000000000000e+00 0.0000000000000000e+00  0.0000000000000000e+00 0.0000000000000000e+00 0.0000000000000000e+00  0.0000000000000000e+00 0.0000000000000000e+00 0.0000000000000000e+00  0.0000000000000000e+00 0.0000000000000000e+00 0.0000000000000000e+00  0.0000000000000000e+00 0.0000000000000000e+00 0.0000000000000000e+00  0.0000000000000000e+00 0.0000000000000000e+00 0.0000000000000000e+00  0.0000000000000000e+00 0.0000000000000000e+00 0.0000000000000000e+00  0.0000000000000000e+00 0.0000000000000000e+00 0.0000000000000000e+00  0.0000000000000000e+00 0.0000000000000000e+00 0.0000000000000000e+00  0.0000000000000000e+00 0.0000000000000000e+00 0.0000000000000000e+00  3.4135804062733460e-01 -3.6820378726122669e-04 0.0000000000000000e+00  5.8131016297052984e-01 -7.4346413280403263e-04 0.0000000000000000e+00  7.2255821509081375e-01 -6.6134139120690126e-04 0.0000000000000000e+00  7.6869264317585562e-01 -2.9118520388988003e-05 0.0000000000000000e+00  7.2251320298508837e-01 6.1132694479943891e-04 0.0000000000000000e+00  5.8119356929909838e-01 7.5497661191540678e-04 0.0000000000000000e+00  3.4116706071701236e-01 3.5328818394731793e-04 0.0000000000000000e+00  0.0000000000000000e+00 0.0000000000000000e+00 0.0000000000000000e+00  0.0000000000000000e+00 0.0000000000000000e+00 0.0000000000000000e+00  0.0000000000000000e+00 0.0000000000000000e+00 0.0000000000000000e+00  0.0000000000000000e+00 0.0000000000000000e+00 0.0000000000000000e+00  0.0000000000000000e+00 0.0000000000000000e+00 0.0000000000000000e+00  0.0000000000000000e+00 0.0000000000000000e+00 0.0000000000000000e+00  0.0000000000000000e+00 0.0000000000000000e+00 0.0000000000000000e+00  0.0000000000000000e+00 0.0000000000000000e+00 0.0000000000000000e+00  0.0000000000000000e+00 0.0000000000000000e+00 0.0000000000000000e+00  0.0000000000000000e+00 0.0000000000000000e+00 0.0000000000000000e+00  0.0000000000000000e+00 0.0000000000000000e+00 0.0000000000000000e+00  0.0000000000000000e+00 0.0000000000000000e+00 0.0000000000000000e+00  0.0000000000000000e+00 0.0000000000000000e+00 0.0000000000000000e+00  0.0000000000000000e+00 0.0000000000000000e+00 0.0000000000000000e+00  0.0000000000000000e+00 0.0000000000000000e+00 0.0000000000000000e+00  0.0000000000000000e+00 0.0000000000000000e+00 0.0000000000000000e+00  0.0000000000000000e+00 0.0000000000000000e+00 0.0000000000000000e+00  0.0000000000000000e+00 0.0000000000000000e+00 0.0000000000000000e+00  0.0000000000000000e+00 0.0000000000000000e+00 0.0000000000000000e+00  0.0000000000000000e+00 0.0000000000000000e+00 0.0000000000000000e+00  0.0000000000000000e+00 0.0000000000000000e+00 0.0000000000000000e+00  0.0000000000000000e+00 0.0000000000000000e+00 0.0000000000000000e+00  0.0000000000000000e+00 0.0000000000000000e+00 0.0000000000000000e+00  3.3983745440177138e-01 -6.5932049630095858e-04 0.0000000000000000e+00  5.8050503369842732e-01 -1.1470011125373865e-03 0.0000000000000000e+00  7.2357752567127243e-01 -9.2161804460119678e-04 0.0000000000000000e+00  7.7092060416070940e-01 -1.9947653719997884e-05 0.0000000000000000e+00  7.2422577618116257e-01 1.0361380719348869e-03 0.0000000000000000e+00  5.8076342755382093e-01 1.2118066499961365e-03 0.0000000000000000e+00  3.3995125042103291e-01 6.9495828229032151e-04 0.0000000000000000e+00  9.9999995789957352e-01 0.0000000000000000e+00 0.0000000000000000e+00  9.9999995789957352e-01 0.0000000000000000e+00 0.0000000000000000e+00  9.9999995789957352e-01 0.0000000000000000e+00 0.0000000000000000e+00  9.9999995789957352e-01 0.0000000000000000e+00 0.0000000000000000e+00  9.9999995789957352e-01 0.0000000000000000e+00 0.0000000000000000e+00  9.9999995789957352e-01 0.0000000000000000e+00 0.0000000000000000e+00  9.9999995789957352e-01 0.0000000000000000e+00 0.0000000000000000e+00  9.9999995789957352e-01 0.0000000000000000e+00 0.0000000000000000e+00  9.9999995789957352e-01 0.0000000000000000e+00 0.0000000000000000e+00  9.9999995789957352e-01 0.0000000000000000e+00 0.0000000000000000e+00  9.9999995789957352e-01 0.0000000000000000e+00 0.0000000000000000e+00  9.9999995789957352e-01 0.0000000000000000e+00 0.0000000000000000e+00  9.9999995789957352e-01 0.0000000000000000e+00 0.0000000000000000e+00  9.9999995789957352e-01 0.0000000000000000e+00 0.0000000000000000e+00  9.9999995789957352e-01 0.0000000000000000e+00 0.0000000000000000e+00  9.9999995789957352e-01 0.0000000000000000e+00 0.0000000000000000e+00  9.9999995789957352e-01 0.0000000000000000e+00 0.0000000000000000e+00  9.9999995789957352e-01 0.0000000000000000e+00 0.0000000000000000e+00  9.9999995789957352e-01 0.0000000000000000e+00 0.0000000000000000e+00  9.9999995789957352e-01 0.0000000000000000e+00 0.0000000000000000e+00  9.9999995789957352e-01 0.0000000000000000e+00 0.0000000000000000e+00  9.9999995789957352e-01 0.0000000000000000e+00 0.0000000000000000e+00  9.9999995789957352e-01 0.0000000000000000e+00 0.0000000000000000e+00  9.9999995789957352e-01 0.0000000000000000e+00 0.0000000000000000e+00  8.4750868002427804e-01 1.9210520264427332e-02 0.0000000000000000e+00  7.6692809329733147e-01 -6.2997300260385749e-03 0.0000000000000000e+00  6.9297786703538744e-01 3.7401709635299069e-02 0.0000000000000000e+00  7.3890782042968262e-01 -6.2641248365104388e-02 0.0000000000000000e+00  7.9232365318925091e-01 1.7927411526766304e-05 0.0000000000000000e+00  7.3005220918473435e-01 -5.4713788186650479e-02 0.0000000000000000e+00  7.5832245718461055e-01 1.3672643232165548e-03 0.0000000000000000e+00  7.9708472971151978e-01 6.8434398339516478e-02 0.0000000000000000e+00  4.1978899710224576e-01 -1.0660209223893925e-01 0.0000000000000000e+00  4.0088091827051037e-01 1.0578180931304208e-01 0.0000000000000000e+00  6.6170248186293690e-01 -2.7147961105424865e-02 0.0000000000000000e+00  6.7611805179260887e-01 4.9224624374361280e-03 0.0000000000000000e+00  4.0539955529803617e-01 1.0597765552689359e-01 0.0000000000000000e+00  2.8452614153897926e-01 -9.3210979745256592e-02 0.0000000000000000e+00  8.3529703944931488e-01 2.9673534894064484e-02 0.0000000000000000e+00  9.5891794369962990e-01 -1.7174143967493578e-02 0.0000000000000000e+00  6.6825143705247558e-01 1.8217789738656738e-02 0.0000000000000000e+00  6.4181394757846433e-01 -4.2504125735574223e-03 0.0000000000000000e+00  6.4444918397902784e-01 -1.6380624830312522e-03 0.0000000000000000e+00  6.2974525181173691e-01 5.0411799085943367e-03 0.0000000000000000e+00  4.7208457033910856e-01 -1.3585634468195669e-02 0.0000000000000000e+00  1.5287628446550725e-01 1.1138851003720139e-01 0.0000000000000000e+00  1.0523230856509098e-01 2.7408393145844836e-02 0.0000000000000000e+00  1.0303678743729121e-01 -2.6199317343322866e-02 0.0000000000000000e+00  1.5195177382465427e-01 -1.1113066685422401e-01 0.0000000000000000e+00  6.3853994202087283e-01 -3.3277134105400108e-03 0.0000000000000000e+00  5.9060601264633361e-01 -1.2115786490645201e-02 0.0000000000000000e+00  5.9534040534469890e-01 1.3761803607438246e-03 0.0000000000000000e+00  4.6060321061558496e-01 4.3795652952369236e-02 0.0000000000000000e+00  7.7160463474017149e-01 -4.6792914068066526e-04 0.0000000000000000e+00  7.3662742302633677e-01 1.1747155741829535e-01 0.0000000000000000e+00  8.2263714742445881e-01 -9.6048898747750078e-02 0.0000000000000000e+00  9.4159704239858444e-01 3.6914616843088138e-02 0.0000000000000000e+00  8.0389418435599735e-01 -8.1887581322812222e-02 0.0000000000000000e+00  4.7141937307354048e-01 1.0857950866622113e-02 0.0000000000000000e+00  8.1407062418768350e-01 -2.3903742697662989e-03 0.0000000000000000e+00  4.8120445815360874e-01 7.1742347725435238e-03 0.0000000000000000e+00  7.7015912681609955e-01 6.7018910555202474e-05 0.0000000000000000e+00  5.1457685015012877e-01 2.1020402358635829e-03 0.0000000000000000e+00  7.9264505097549143e-01 8.6201227587491651e-03 0.0000000000000000e+00  4.2048078819237339e-01 -3.6640254371704421e-02 0.0000000000000000e+00  4.0984674889508654e-01 3.0623583726796248e-02 0.0000000000000000e+00  4.7233999997655668e-01 -3.9718231822285135e-02 0.0000000000000000e+00  8.0211564854637207e-01 -2.9863799203842047e-02 0.0000000000000000e+00  7.7967234923807571e-01 5.5807861717844262e-04 0.0000000000000000e+00  4.1268210789150001e-01 1.8895697226223643e-01 0.0000000000000000e+00  4.7728792197391584e-01 9.0089797288522663e-02 0.0000000000000000e+00  2.1741035578067872e-01 5.7644771002916331e-02 0.0000000000000000e+00  4.5439918618977571e-01 -8.9182552934184187e-02 0.0000000000000000e+00  2.1754026250671346e-01 -5.7380865233790129e-02 0.0000000000000000e+00  4.1643096891440112e-01 -1.8924548993842466e-01 0.0000000000000000e+00  4.7830112743758019e-01 -1.8278793499964762e-03 0.0000000000000000e+00  3.7583140910153845e-01 7.0652990213543265e-02 0.0000000000000000e+00  2.8728920653383144e-01 -5.5555355442143635e-02 0.0000000000000000e+00  9.1314716077659885e-01 1.3171795451150299e-02 0.0000000000000000e+00  4.7131291431319539e-01 -4.8677636561715995e-03 0.0000000000000000e+00  6.7278939564693263e-01 -1.7038298304939967e-01 0.0000000000000000e+00  4.1838882793186105e-01 2.1015104884422670e-02 0.0000000000000000e+00  4.4101864594247409e-01 1.6088225282159402e-03 0.0000000000000000e+00  7.5763537043290741e-01 9.0674412103405280e-02 0.0000000000000000e+00  7.6924480829807362e-01 4.1443458542616239e-03 0.0000000000000000e+00  9.0190032516956808e-01 -1.7651127871268584e-02 0.0000000000000000e+00  9.9223009748571389e-01 6.3374795930306949e-03 0.0000000000000000e+00  7.2823310833892585e-01 -2.2685161778151410e-03 0.0000000000000000e+00  4.3969552279765151e-01 -6.5130069143842719e-04 0.0000000000000000e+00  9.5688254131243400e-01 -3.0589874520277737e-02 0.0000000000000000e+00  6.8769139405363788e-01 -2.4492941272241029e-02 0.0000000000000000e+00  4.0172598657961545e-01 -1.3086248462240789e-02 0.0000000000000000e+00  8.1755276169454927e-01 -1.5921828664708749e-02 0.0000000000000000e+00  6.4943833063925349e-01 1.7922318846331531e-01 0.0000000000000000e+00  8.1123071871495711e-01 1.3995656235085483e-02 0.0000000000000000e+00  9.5903244013273559e-01 1.6202439723966181e-02 0.0000000000000000e+00  3.8588047548619658e-01 -3.3879877960146126e-03 0.0000000000000000e+00  8.6631974786514077e-01 1.0030425703199289e-01 0.0000000000000000e+00  6.5278533763247182e-01 -9.2064415051996695e-03 0.0000000000000000e+00  7.2084281451821242e-01 -6.2515217878864535e-03 0.0000000000000000e+00  6.6650850113108806e-01 1.6091710175430211e-02 0.0000000000000000e+00  6.1120215203067541e-01 -9.2654041338055257e-02 0.0000000000000000e+00  3.7840069760207667e-01 8.1902946080625351e-03 0.0000000000000000e+00  7.6454619501869947e-01 -8.5770098462903316e-02 0.0000000000000000e+00  4.1900091234978581e-01 -1.2408932073131823e-03 0.0000000000000000e+00  3.8788768633665754e-01 1.3922856531187583e-01 0.0000000000000000e+00  4.4427555904622440e-01 -3.6232482247655143e-02 0.0000000000000000e+00  4.4771758108871201e-01 3.6639621017209377e-02 0.0000000000000000e+00  3.8758889785610118e-01 -1.3948982225437334e-01 0.0000000000000000e+00  8.5516734796459293e-01 -6.2336099443923570e-02 0.0000000000000000e+00  7.2855658427434633e-01 1.1195860987684983e-02 0.0000000000000000e+00  6.9822713572891948e-01 5.4983666939732771e-02 0.0000000000000000e+00  8.2649609853463624e-01 -1.0560428837387465e-02 0.0000000000000000e+00  7.3558742455240478e-01 1.3847740969201803e-03 0.0000000000000000e+00  7.1719923352566872e-01 -9.8537101461301834e-04 0.0000000000000000e+00  4.0201988311978604e-01 -2.1999663123716995e-03 0.0000000000000000e+00  6.0992651264769771e-01 -9.1947690275452895e-02 0.0000000000000000e+00  9.9627099492699800e-01 -3.7309527200017323e-03 0.0000000000000000e+00  6.1838960587248193e-01 3.5821358649489189e-02 0.0000000000000000e+00  3.9235015413134194e-01 3.1766114793037692e-03 0.0000000000000000e+00  4.2616713928393590e-01 -9.6212809568836709e-04 0.0000000000000000e+00  3.9870299926961628e-01 5.1384853514384972e-04 0.0000000000000000e+00  4.1869213498831021e-01 2.1454435537796141e-03 0.0000000000000000e+00  7.3502176087616100e-01 6.1814264131093031e-03 0.0000000000000000e+00  6.2937710644981448e-01 9.8218823027238361e-02 0.0000000000000000e+00  7.0279709554732539e-01 9.5352973206810898e-04 0.0000000000000000e+00  1.1495212346099909e-01 -4.7398811485377002e-02 0.0000000000000000e+00  5.5090590625573121e-01 6.5235183438645941e-02 0.0000000000000000e+00  6.8569442908465128e-01 -1.6511793021127319e-02 0.0000000000000000e+00  7.3550680483062114e-01 3.0413221373220486e-03 0.0000000000000000e+00  1.1471991159116299e-01 4.7110987084049129e-02 0.0000000000000000e+00  -1.7272385433695894e-03 3.0127826916508182e-02 0.0000000000000000e+00  -8.3806202616143466e-03 3.2699115869009830e-02 0.0000000000000000e+00  -8.4470798454607237e-03 -3.2664394799700215e-02 0.0000000000000000e+00  1.5426189821202745e-02 -3.5614386980330988e-02 0.0000000000000000e+00  3.8384742280397904e-01 8.3812240415711366e-04 0.0000000000000000e+00  3.2478838390981163e-01 -1.5191870744579448e-02 0.0000000000000000e+00  8.9699224189290394e-01 -2.6143375624533505e-02 0.0000000000000000e+00  7.4099884885779010e-01 -4.7451123488410248e-03 0.0000000000000000e+00  9.4541270932814003e-01 3.6501306994571825e-02 0.0000000000000000e+00  2.3711027774639618e-01 -2.4923213278958925e-02 0.0000000000000000e+00  7.2579628049284384e-01 -1.2980610239695948e-03 0.0000000000000000e+00  3.3923939624786625e-01 2.7051450481805784e-03 0.0000000000000000e+00  7.5657373207442813e-01 -1.0310265400739131e-03 0.0000000000000000e+00  6.7209325352447613e-01 -1.9937098519339497e-01 0.0000000000000000e+00  8.2243528779931108e-01 7.2623673339607356e-02 0.0000000000000000e+00  8.3301160099474003e-01 -4.0141919409849139e-02 0.0000000000000000e+00  3.4336720052258185e-01 -4.4073624850055025e-03 0.0000000000000000e+00  7.3267589701281954e-01 1.3620805217838398e-03 0.0000000000000000e+00  1.1471534184175350e-01 3.8096056866425400e-02 0.0000000000000000e+00  7.5432749923923781e-01 -9.2086575975956955e-03 0.0000000000000000e+00  7.6572660862822939e-01 5.8401576859062304e-02 0.0000000000000000e+00  9.8567435985459961e-01 1.3450498292074771e-02 0.0000000000000000e+00  2.1890875995085135e-01 2.1064143055423222e-02 0.0000000000000000e+00  7.6854803337539657e-01 -1.3470105709381883e-02 0.0000000000000000e+00  8.9763012539308917e-01 -1.0597057749980218e-01 0.0000000000000000e+00  3.2947692894767378e-01 -1.2325664334582338e-02 0.0000000000000000e+00  7.7542003338593224e-01 -5.1437139518753288e-04 0.0000000000000000e+00  9.4693191174647806e-01 -3.5467612877950007e-02 0.0000000000000000e+00  8.1848077443850320e-01 1.6014638307132961e-01 0.0000000000000000e+00  9.4540779975935352e-01 3.6386838304499125e-02 0.0000000000000000e+00  8.1987326911905212e-01 -1.6339672224698612e-01 0.0000000000000000e+00  6.5890243136026472e-01 -5.0062487170586679e-02 0.0000000000000000e+00  1.0065614978865513e-01 -3.8262946185664566e-02 0.0000000000000000e+00  2.3101045199024658e-01 3.0614321355245746e-02 0.0000000000000000e+00  2.7540267981037947e-01 1.7537114619235079e-02 0.0000000000000000e+00  5.5211067141624592e-01 2.5074422099429287e-02 0.0000000000000000e+00  7.8771730348420377e-01 2.6311606822394022e-02 0.0000000000000000e+00  6.2218598095382893e-01 1.6449564137833174e-03 0.0000000000000000e+00  2.9352153776909573e-01 -4.4759619408987110e-03 0.0000000000000000e+00  8.8955472337012897e-01 -7.3693925043550844e-03 0.0000000000000000e+00  6.2523874344533481e-01 -4.0495304415273291e-02 0.0000000000000000e+00  2.5136453404875558e-01 2.5061872969287472e-03 0.0000000000000000e+00  2.0862239738373470e-01 -2.1822058146018890e-02 0.0000000000000000e+00  6.0065309418709034e-01 -1.5700764820897977e-03 0.0000000000000000e+00  3.1582297257362069e-01 9.8752404641562746e-03 0.0000000000000000e+00  7.5380603609566343e-01 2.7596784107842506e-03 0.0000000000000000e+00  6.7922702207244512e-01 2.2690457748988009e-03 0.0000000000000000e+00  5.7880785490053610e-01 7.2167529001933824e-03 0.0000000000000000e+00  2.6005182281866623e-01 6.6826666349579641e-03 0.0000000000000000e+00  7.8320285370320120e-01 1.0278892940089957e-02 0.0000000000000000e+00  7.4884649438725948e-01 1.9488617004199519e-02 0.0000000000000000e+00  4.8548505435319328e-01 -6.0104834059069218e-02 0.0000000000000000e+00  6.3215456291630490e-01 7.4821628603817580e-02 0.0000000000000000e+00  9.5308875526807801e-01 -3.7347992680544929e-02 0.0000000000000000e+00  7.7655847818923918e-01 -1.0615255892748611e-03 0.0000000000000000e+00  7.6506146702556144e-01 -3.2703467544968417e-04 0.0000000000000000e+00  7.8656711693901105e-01 2.6579605311593527e-05 0.0000000000000000e+00  6.6446776339842617e-01 2.5889359840793994e-02 0.0000000000000000e+00  5.0141072032913947e-01 -1.7318240321456432e-01 0.0000000000000000e+00  6.7936614712132148e-01 1.9733757531339202e-01 0.0000000000000000e+00  2.6439822668496960e-01 5.2607581508334824e-04 0.0000000000000000e+00  6.0451164526294798e-01 -3.6060685098376226e-02 0.0000000000000000e+00  5.8103365907569338e-01 1.3013806791470994e-02 0.0000000000000000e+00  6.1896862439452627e-01 -1.6597811194711831e-01 0.0000000000000000e+00  6.2574704111954316e-01 1.6317105161178722e-01 0.0000000000000000e+00  7.7113570184707536e-01 6.2297461568667080e-05 0.0000000000000000e+00  8.0101087774623458e-01 1.4588981621397167e-03 0.0000000000000000e+00  7.6145985738484812e-01 6.3066607784155987e-02 0.0000000000000000e+00  7.5293854848283215e-01 -6.7830866842523416e-02 0.0000000000000000e+00  2.9621803466708874e-01 -8.8683835022490044e-04 0.0000000000000000e+00  5.4250281960931168e-01 3.4398999720130205e-02 0.0000000000000000e+00  5.4247637672582927e-01 -3.4418926398342709e-02 0.0000000000000000e+00  2.9842384446667924e-01 -1.2457705541527839e-01 0.0000000000000000e+00  6.0176923023543960e-01 3.5995775934557837e-03 0.0000000000000000e+00  5.3883169849862744e-01 1.0760180795558343e-01 0.0000000000000000e+00  8.5893360426341070e-01 -2.4381189578094515e-03 0.0000000000000000e+00  5.8609059476853365e-01 8.8311305761467761e-04 0.0000000000000000e+00  6.0626516113547624e-01 -9.2812504118899863e-04 0.0000000000000000e+00  5.8397766442927035e-01 6.5355932067928642e-03 0.0000000000000000e+00  2.2037092266564556e-01 8.2967396763109519e-02 0.0000000000000000e+00  5.0263967811463983e-01 -1.0951641409242899e-01 0.0000000000000000e+00  6.2651376932597935e-01 -8.7415731976481399e-03 0.0000000000000000e+00  6.3479624196079942e-01 -2.2379085638920553e-03 0.0000000000000000e+00  2.6548299012293120e-01 -5.7335474600219468e-04 0.0000000000000000e+00  2.5365396662143319e-01 -4.0704470760131390e-03 0.0000000000000000e+00  8.1169389212876497e-01 -4.0006793330746630e-02