<?xml version="1.0"?>
<VTKFile type="UnstructuredGrid"  version="0.1"  >
<UnstructuredGrid>
<Piece  NumberOfPoints="406" NumberOfCells="722">
<Points>
<DataArray  type="Float64"  NumberOfComponents="3"  format="ascii">-6 -2 0  -6 2 0  6 2 0  6 -2 0  -2.8 0 0  -1.2 0 0  -5.500000000001853 -2 0  -5.000000000003705 -2 0  -4.500000000005556 -2 0  -4.000000000007409 -2 0  -3.50000000000926 -2 0  -3.000000000011112 -2 0  -2.500000000012963 -2 0  -2.000000000014814 -2 0  -1.500000000016665 -2 0  -1.000000000018516 -2 0  -0.5000000000203677 -2 0  -2.204547655537681e-11 -2 0  0.4999999999796305 -2 0  0.9999999999814779 -2 0  1.499999999983327 -2 0  1.999999999985175 -2 0  2.499999999987029 -2 0  2.999999999988882 -2 0  3.499999999990735 -2 0  3.999999999992589 -2 0  4.49999999999444 -2 0  4.999999999996293 -2 0  5.499999999998147 -2 0  6 -1.500000000001387 0  6 -1.000000000002774 0  6 -0.5000000000041616 0  6 -5.505595979116151e-12 0  6 0.4999999999958384 0  6 0.9999999999972258 0  6 1.499999999998613 0  5.500000000001853 2 0  5.000000000003705 2 0  4.500000000005556 2 0  4.000000000007409 2 0  3.50000000000926 2 0  3.000000000011112 2 0  2.500000000012963 2 0  2.000000000014814 2 0  1.500000000016665 2 0  1.000000000018516 2 0  0.5000000000203677 2 0  2.204547655537681e-11 2 0  -0.4999999999796305 2 0  -0.9999999999814779 2 0  -1.499999999983327 2 0  -1.999999999985175 2 0  -2.499999999987029 2 0  -2.999999999988882 2 0  -3.499999999990735 2 0  -3.999999999992589 2 0  -4.49999999999444 2 0  -4.999999999996293 2 0  -5.499999999998147 2 0  -6 1.500000000001387 0  -6 1.000000000002774 0  -6 0.5000000000041616 0  -6 5.505595979116151e-12 0  -6 -0.4999999999958384 0  -6 -0.9999999999972258 0  -6 -1.499999999998613 0  -2.776753453941174 -0.1914525314286965 0  -2.708364820523325 -0.3717785376335722 0  -2.598808598538216 -0.5304981265911284 0  -2.454451797386757 -0.65838709271366 0  -2.283683909636528 -0.748012994147384 0  -2.096429344207466 -0.7941670992780535 0  -1.903570655798842 -0.7941670992788195 0  -1.716316090368095 -0.7480129941491368 0  -1.545548202616307 -0.6583870927157747 0  -1.401191401463757 -0.530498126593356 0  -1.291635179477527 -0.371778537635196 0  -1.223246546059047 -0.1914525314295925 0  -1.223246546058803 0.1914525314286035 0  -1.291635179476594 0.3717785376334188 0  -1.401191401461634 0.5304981265909601 0  -1.545548202612898 0.6583870927134221 0  -1.716316090363093 0.7480129941472402 0  -1.903570655792394 0.7941670992780367 0  -2.096429344201276 0.7941670992788055 0  -2.283683909631911 0.7480129941491347 0  -2.454451797383697 0.6583870927157729 0  -2.598808598536385 0.530498126593196 0  -2.70836482052258 0.3717785376349917 0  -2.776753453940975 0.1914525314295042 0  0.4588466633941945 0.2704149791022056 0  -4.424312812173863 0.2760319703992994 0  -3.803977598762586 -0.6841584599595646 0  -0.1330968762779425 -0.6798763971615133 0  2.451109587541276 3.169800318630399e-13 0  -3.563610936250569 0.5929994091167295 0  4.204753319582647 0.2820669554523581 0  -0.4390897559348154 0.6178095532273566 0  -3.041446812595122 1.175550440315544 0  -0.9622132806516797 1.132103015222783 0  1.069493318942931 -0.773608156980569 0  -4.924330687080279 -0.7127064269610045 0  -3.024693497948964 -1.195179289656404 0  -0.9648749555625579 -1.256854520022574 0  -3.443624282349383 -0.2044158249759613 0  -0.5611500783757608 -0.1747080110423833 0  1.60270880116926 0.7487034276124258 0  3.488352576142236 -0.8228939860777884 0  4.816375011670135 -0.8163750116689444 0  3.243628045085357 0.8578172796997985 0  -4.228632884234073 1.228069101636678 0  -2.365220384435482 -1.356128547810356 0  -1.637465979486354 1.3571687267915 0  -1.642380978561139 -1.359365080147485 0  -2.362988915989869 1.356737096243695 0  -5.134120367293631 0.8356299802910161 0  2.077496878467794 -0.9514080034522553 0  4.960859291178299 0.9608592911785537 0  0.3293120056474302 1.148965409695154 0  -5.157560560414062 0.09447106214747865 0  -3.14779387667392 -0.6330563038825547 0  -3.148134455585257 0.4354299640428653 0  -0.8464439673630421 0.4159277415926296 0  -0.9918125625721008 -0.7191748422889824 0  -4.355349213295776 -1.234510499778242 0  1.582074659164868 -0.06850205959954866 0  2.400584045214166 1.204278622181321 0  5.102831660739063 0.03453404176596848 0  4.083259768981113 1.154272958349666 0  -3.992394834362243 -0.1621022234411988 0  0.4290302718942113 -1.225465289645401 0  -3.681487986394671 -1.310544246656267 0  -3.640289698916164 1.187023654838123 0  0.468851680921228 -0.447055967952278 0  3.315209904217932 0.05667935655546536 0  -2.541160649745046 -1.046980928586996 0  -1.45196684542695 1.044189935346116 0  -2.000844595891861 -1.207983108473125 0  -1.453092202970521 -1.061139264918894 0  -2.000050543938391 1.207806685704176 0  -2.548033154566413 1.04418993534851 0  4.13054585796652 -1.232871249381608 0  -0.3301617095463629 1.221692405319566 0  -0.2880491989587189 -1.359626628407983 0  -0.0758941643813178 0.132275811829787 0  2.826389221580753 -1.233168480096227 0  -2.922070412327736 0.7575752117792038 0  1.003070890178416 1.271347915034201 0  -5.319521816151902 -1.310543894393663 0  -1.070407062963812 0.7877698545098388 0  -4.562499863038985 -0.2302396981426722 0  -3.164226661545047 0.07179577787350272 0  -0.9091377812900333 0.132454654016971 0  4.116029045943655 -0.4851826871817362 0  5.316659189209927 -1.316659189208741 0  -0.9498828454673396 -0.4149758979014553 0  -4.037769805263969 0.6896174350675625 0  1.431664772855882 -1.327784137638992 0  -3.646693623568034 0.1600006358878044 0  -2.878371345483476 -0.7910345833001061 0  1.062603041385242 0.2894765870627741 0  -0.547955103783681 0.1635272504420374 0  -4.804809838419659 1.41016301576038 0  -3.042895319571192 -0.3694931303482478 0  -4.59252578392403 0.792267765362792 0  2.823271260730033 -0.5472430318427347 0  -4.28575390662405 -0.7521491832384866 0  -0.5524005545121191 -0.9037367558558163 0  1.815219025072439 1.388812135783969 0  -1.288398729718543 -0.8178399475601057 0  -5.424388493366639 1.35375165044146 0  -2.256991952837567 -1.049538527273222 0  -1.739586738723494 -1.052327527873255 0  -1.738827359988536 1.050180627239116 0  -2.257795730428802 1.049701225145305 0  -0.62222340523776 -0.5483611729237363 0  2.065188519029698 0.5424877383589943 0  0.1055865106318892 0.7347782870471022 0  1.013082573993895 -0.2061877611231605 0  -5.428323520618333 -0.4386412085227075 0  5.374041502384443 -0.5304401760993408 0  3.435185060219232 -1.377658617395091 0  -3.302377238490527 0.8841390072780534 0  -0.9902123298072768 -0.124175295282554 0  0.7186958547669859 0.8724503317343631 0  2.941237214953417 1.390391532351976 0  4.708037787864423 -1.340276032051348 0  5.395029680982659 1.395029680983341 0  3.591022587550188 1.348260650408605 0  2.759385971589342 0.4857447325740718 0  -0.6832705231418494 0.8879387563573758 0  5.437781298507145 0.5981501503262471 0  -2.698603003287285 1.617130043745112 0  -3.463358189947519 -1.013588318179017 0  1.710866040171871 -0.6978716337870808 0  3.642182982762737 0.4555704362064124 0  -2.699802128031161 -1.618310703146212 0  -1.3020054856637 1.619819977935582 0  -2.000000000004996 -1.566396763829867 0  -1.999999999994794 1.566396763830688 0  -1.247812462071684 -1.595232739507426 0  4.59429106759859 1.420052135572917 0  0.9448382581152466 -1.440259145469251 0  -0.116376100998861 -0.2606209011258676 0  -4.774521510507792 0.4245390872783272 0  -2.983910172370106 -0.1208000607277856 0  -3.353983741142061 1.576062863985777 0  -5.473352579109997 0.4917619255280954 0  -4.828650470275986 -1.493148538517745 0  4.639973657165532 -0.2833178611094909 0  -2.660279445404468 0.7699932347178977 0  -1.335045190775955 0.7744876666923373 0  -3.395669172689978 0.2584951122361346 0  2.279110606119369 -1.465899541383697 0  4.734317729212562 0.4520963557364723 0  -0.6334913028224612 1.584213953723378 0  2.121854101359879 -0.4289611127787379 0  -3.474459720833238 -0.4977581316675216 0  -1.066539898844178 0.3411379476537602 0  -3.361849707555382 -1.611428512420182 0  -4.099039818938317 0.3306400369415774 0  -2.935324777364672 0.354721898811665 0  -3.973578595052027 1.482940358734671 0  3.784450148635689 -0.0702780807301525 0  -1.191348122671212 -0.5614501189722798 0  -2.838672605956353 -0.5493179047027598 0  -1.184983441257359 0.5617520886612424 0  -2.811184099847449 0.5574240755049175 0  0.2702752249355158 -0.8003643570420809 0  -0.6945947797857237 -1.593893965175195 0  0.001175881878679056 1.504521009023778 0  0.6072931735145096 1.501814722697789 0  -3.991896293645949 -1.047264188412552 0  -3.734097395159253 -0.3261671578666079 0  -5.539652387691843 -0.8857154182585802 0  -4.395061924111849 1.563293728588296 0  0.2258327611651416 -0.08745142624872881 0  -3.774816634825771 0.8676973328379478 0  2.208484493569073 1.6256686312487 0  0.1309939514660535 -1.566169703482512 0  -5.551414360955331 0.9459842275970113 0  -4.04734138658365 -1.51163984963472 0  -4.947145019546805 -0.3299925153029702 0  4.320410447198621 0.6970857582435144 0  -4.707557346727139 -1.000565649857444 0  1.353711468973986 1.582551234446199 0  1.674156483558973 0.3266252271732694 0  -4.039105552973997 -0.4537604746027087 0  0.01051727619263377 -1.088858357362194 0  -0.2234942609176301 0.8619127912343982 0  -2.95903482691863 0.1219373374385197 0  -4.682467695920681 0.0804575682243254 0  5.535750224195656 -0.1525732643419722 0  -4.290083947414376 -0.0005258314026840717 0  1.136102562417988 0.7655312464039168 0  -2.816589394567214 0.9927597419785312 0  -2.645374456162409 -0.7645902451387543 0  4.18414576655837 1.624276131878667 0  0.7127337088822223 -0.9006358935856398 0  1.972418102153911 0.9727040774616764 0  -2.42199174813501 0.8591219219254587 0  -2.418604734200992 -0.8552987735117754 0  -5.573597213364169 -0.03612430678117123 0  2.024792870869397 0.05574071630590883 0  -1.578875191508968 0.861424470724936 0  -1.54706008231699 -0.8630049102346303 0  3.848662181064435 -1.569601980075533 0  -2.000000000003871 -0.9746445732264465 0  -1.99999999
[...]
<PointData  Vectors="f_22"> 
<DataArray  type="Float64"  Name="f_22"  NumberOfComponents="3" format="ascii">0.0000000000000000e+00 0.0000000000000000e+00 0.0000000000000000e+00  0.0000000000000000e+00 0.0000000000000000e+00 0.0000000000000000e+00  0.0000000000000000e+00 0.0000000000000000e+00 0.0000000000000000e+00  0.0000000000000000e+00 0.0000000000000000e+00 0.0000000000000000e+00  9.9999995792814822e-01 0.0000000000000000e+00 0.0000000000000000e+00  9.9999995792814822e-01 0.0000000000000000e+00 0.0000000000000000e+00  0.0000000000000000e+00 0.0000000000000000e+00 0.0000000000000000e+00  0.0000000000000000e+00 0.0000000000000000e+00 0.0000000000000000e+00  0.0000000000000000e+00 0.0000000000000000e+00 0.0000000000000000e+00  0.0000000000000000e+00 0.0000000000000000e+00 0.0000000000000000e+00  0.0000000000000000e+00 0.0000000000000000e+00 0.0000000000000000e+00  0.0000000000000000e+00 0.0000000000000000e+00 0.0000000000000000e+00  0.0000000000000000e+00 0.0000000000000000e+00 0.0000000000000000e+00  0.0000000000000000e+00 0.0000000000000000e+00 0.0000000000000000e+00  0.0000000000000000e+00 0.0000000000000000e+00 0.0000000000000000e+00  0.0000000000000000e+00 0.0000000000000000e+00 0.0000000000000000e+00  0.0000000000000000e+00 0.0000000000000000e+00 0.0000000000000000e+00  0.0000000000000000e+00 0.0000000000000000e+00 0.0000000000000000e+00  0.0000000000000000e+00 0.0000000000000000e+00 0.0000000000000000e+00  0.0000000000000000e+00 0.0000000000000000e+00 0.0000000000000000e+00  0.0000000000000000e+00 0.0000000000000000e+00 0.0000000000000000e+00  0.0000000000000000e+00 0.0000000000000000e+00 0.0000000000000000e+00  0.0000000000000000e+00 0.0000000000000000e+00 0.0000000000000000e+00  0.0000000000000000e+00 0.0000000000000000e+00 0.0000000000000000e+00  0.0000000000000000e+00 0.0000000000000000e+00 0.0000000000000000e+00  0.0000000000000000e+00 0.0000000000000000e+00 0.0000000000000000e+00  0.0000000000000000e+00 0.0000000000000000e+00 0.0000000000000000e+00  0.0000000000000000e+00 0.0000000000000000e+00 0.0000000000000000e+00  0.0000000000000000e+00 0.0000000000000000e+00 0.0000000000000000e+00  3.5013757346802327e-01 -1.9979575089820227e-04 0.0000000000000000e+00  5.8061095752538527e-01 -4.8877179889333694e-04 0.0000000000000000e+00  7.1336711385530793e-01 -4.5802292910165665e-04 0.0000000000000000e+00  7.5605192298613955e-01 -3.3309105660810866e-05 0.0000000000000000e+00  7.1331739038630304e-01 4.1089979086179754e-04 0.0000000000000000e+00  5.8052311062110362e-01 4.9489436008503097e-04 0.0000000000000000e+00  3.4994478619712821e-01 2.1235940832190663e-04 0.0000000000000000e+00  0.0000000000000000e+00 0.0000000000000000e+00 0.0000000000000000e+00  0.0000000000000000e+00 0.0000000000000000e+00 0.0000000000000000e+00  0.0000000000000000e+00 0.0000000000000000e+00 0.0000000000000000e+00  0.0000000000000000e+00 0.0000000000000000e+00 0.0000000000000000e+00  0.0000000000000000e+00 0.0000000000000000e+00 0.0000000000000000e+00  0.0000000000000000e+00 0.0000000000000000e+00 0.0000000000000000e+00  0.0000000000000000e+00 0.0000000000000000e+00 0.0000000000000000e+00  0.0000000000000000e+00 0.0000000000000000e+00 0.0000000000000000e+00  0.0000000000000000e+00 0.0000000000000000e+00 0.0000000000000000e+00  0.0000000000000000e+00 0.0000000000000000e+00 0.0000000000000000e+00  0.0000000000000000e+00 0.0000000000000000e+00 0.0000000000000000e+00  0.0000000000000000e+00 0.0000000000000000e+00 0.0000000000000000e+00  0.0000000000000000e+00 0.0000000000000000e+00 0.0000000000000000e+00  0.0000000000000000e+00 0.0000000000000000e+00 0.0000000000000000e+00  0.0000000000000000e+00 0.0000000000000000e+00 0.0000000000000000e+00  0.0000000000000000e+00 0.0000000000000000e+00 0.0000000000000000e+00  0.0000000000000000e+00 0.0000000000000000e+00 0.0000000000000000e+00  0.0000000000000000e+00 0.0000000000000000e+00 0.0000000000000000e+00  0.0000000000000000e+00 0.0000000000000000e+00 0.0000000000000000e+00  0.0000000000000000e+00 0.0000000000000000e+00 0.0000000000000000e+00  0.0000000000000000e+00 0.0000000000000000e+00 0.0000000000000000e+00  0.0000000000000000e+00 0.0000000000000000e+00 0.0000000000000000e+00  0.0000000000000000e+00 0.0000000000000000e+00 0.0000000000000000e+00  3.4820062681527048e-01 -7.1011051094814991e-04 0.0000000000000000e+00  5.7953329703188572e-01 -1.2471192371925756e-03 0.0000000000000000e+00  7.1477006570117552e-01 -1.0037677456562256e-03 0.0000000000000000e+00  7.5903159489971261e-01 -2.9640384642305844e-05 0.0000000000000000e+00  7.1539888107578342e-01 1.1148840224130508e-03 0.0000000000000000e+00  5.7975597706643112e-01 1.3115310950576348e-03 0.0000000000000000e+00  3.4832626441763170e-01 7.3797836588018588e-04 0.0000000000000000e+00  9.9999995792814822e-01 0.0000000000000000e+00 0.0000000000000000e+00  9.9999995792814822e-01 0.0000000000000000e+00 0.0000000000000000e+00  9.9999995792814822e-01 0.0000000000000000e+00 0.0000000000000000e+00  9.9999995792814822e-01 0.0000000000000000e+00 0.0000000000000000e+00  9.9999995792814822e-01 0.0000000000000000e+00 0.0000000000000000e+00  9.9999995792814822e-01 0.0000000000000000e+00 0.0000000000000000e+00  9.9999995792814822e-01 0.0000000000000000e+00 0.0000000000000000e+00  9.9999995792814822e-01 0.0000000000000000e+00 0.0000000000000000e+00  9.9999995792814822e-01 0.0000000000000000e+00 0.0000000000000000e+00  9.9999995792814822e-01 0.0000000000000000e+00 0.0000000000000000e+00  9.9999995792814822e-01 0.0000000000000000e+00 0.0000000000000000e+00  9.9999995792814822e-01 0.0000000000000000e+00 0.0000000000000000e+00  9.9999995792814822e-01 0.0000000000000000e+00 0.0000000000000000e+00  9.9999995792814822e-01 0.0000000000000000e+00 0.0000000000000000e+00  9.9999995792814822e-01 0.0000000000000000e+00 0.0000000000000000e+00  9.9999995792814822e-01 0.0000000000000000e+00 0.0000000000000000e+00  9.9999995792814822e-01 0.0000000000000000e+00 0.0000000000000000e+00  9.9999995792814822e-01 0.0000000000000000e+00 0.0000000000000000e+00  9.9999995792814822e-01 0.0000000000000000e+00 0.0000000000000000e+00  9.9999995792814822e-01 0.0000000000000000e+00 0.0000000000000000e+00  9.9999995792814822e-01 0.0000000000000000e+00 0.0000000000000000e+00  9.9999995792814822e-01 0.0000000000000000e+00 0.0000000000000000e+00  9.9999995792814822e-01 0.0000000000000000e+00 0.0000000000000000e+00  9.9999995792814822e-01 0.0000000000000000e+00 0.0000000000000000e+00  8.4696478623529825e-01 2.1187440713268921e-02 0.0000000000000000e+00  7.5642955342629492e-01 -6.5704154780205117e-03 0.0000000000000000e+00  6.8678309529757675e-01 3.9117975311156343e-02 0.0000000000000000e+00  7.3693596283886265e-01 -6.6361079878827514e-02 0.0000000000000000e+00  7.8342473643509614e-01 1.6558436171431658e-05 0.0000000000000000e+00  7.2324446433514711e-01 -5.7390160269553438e-02 0.0000000000000000e+00  7.4697410305366863e-01 1.6312534827691721e-03 0.0000000000000000e+00  7.9782311072412859e-01 6.9600102868037722e-02 0.0000000000000000e+00  4.1736062556139059e-01 -1.1125278119488083e-01 0.0000000000000000e+00  3.9496514885161133e-01 1.0608187090413371e-01 0.0000000000000000e+00  6.5722966182180620e-01 -2.9730016867610887e-02 0.0000000000000000e+00  6.7019259910299311e-01 5.0822632292614259e-03 0.0000000000000000e+00  4.0314480612750725e-01 1.1058926130236198e-01 0.0000000000000000e+00  2.7670254890590756e-01 -9.4089889198339688e-02 0.0000000000000000e+00  8.2737051058023847e-01 3.1206511510197359e-02 0.0000000000000000e+00  9.6367062718289087e-01 -1.6390589115945483e-02 0.0000000000000000e+00  6.6342232595600892e-01 2.0280945108312829e-02 0.0000000000000000e+00  6.3758187189452298e-01 -5.1567615109791983e-03 0.0000000000000000e+00  6.4021374843593803e-01 -1.7695632606777277e-03 0.0000000000000000e+00  6.2603410846959173e-01 6.0804916358145394e-03 0.0000000000000000e+00  4.7504126691272719e-01 -1.3969877306559108e-02 0.0000000000000000e+00  1.4730487322095207e-01 1.1588462595037706e-01 0.0000000000000000e+00  9.8112809533739256e-02 2.6019858293061107e-02 0.0000000000000000e+00  9.5906386085399767e-02 -2.4790982441176838e-02 0.0000000000000000e+00  1.4638443486717273e-01 -1.1560879722672751e-01 0.0000000000000000e+00  6.3460769442064247e-01 -3.4341597218379926e-03 0.0000000000000000e+00  5.8759658192353836e-01 -1.3819309853161413e-02 0.0000000000000000e+00  5.9382493194842056e-01 1.4152407180480580e-03 0.0000000000000000e+00  4.5570214210762749e-01 4.7223025019688523e-02 0.0000000000000000e+00  7.5995535437661155e-01 -4.9631146908067452e-04 0.0000000000000000e+00  7.3080129215844758e-01 1.2312227047450233e-01 0.0000000000000000e+00  8.1691947735864145e-01 -1.0087538407326405e-01 0.0000000000000000e+00  9.4532754415555298e-01 3.3685341462537016e-02 0.0000000000000000e+00  8.0695750033670710e-01 -7.8433465402622651e-02 0.0000000000000000e+00  4.7459835500962005e-01 1.1146411273908393e-02 0.0000000000000000e+00  8.0823636158731682e-01 -2.6605903133232272e-03 0.0000000000000000e+00  4.8242444869132495e-01 8.3346145418568152e-03 0.0000000000000000e+00  7.5731777240691889e-01 6.4524458974544319e-05 0.0000000000000000e+00  5.1674044826094057e-01 2.5281384671556276e-03 0.0000000000000000e+00  7.8224419279737334e-01 9.0137498880812558e-03 0.0000000000000000e+00  4.1669181695959556e-01 -3.9513898050967305e-02 0.0000000000000000e+00  4.1338470655849219e-01 3.1632941477496332e-02 0.0000000000000000e+00  4.7330604738586313e-01 -4.1256474711761415e-02 0.0000000000000000e+00  8.0031292355857997e-01 -3.2831548961760902e-02 0.0000000000000000e+00  7.6864241974489922e-01 6.7086979369820714e-04 0.0000000000000000e+00  4.0667719371525313e-01 1.9503026143583962e-01 0.0000000000000000e+00  4.7713573504592044e-01 8.8015476854249819e-02 0.0000000000000000e+00  2.1222238802378213e-01 6.0366072490999005e-02 0.0000000000000000e+00  4.5373138270708546e-01 -8.7188657188191257e-02 0.0000000000000000e+00  2.1235993088195451e-01 -6.0097228090186014e-02 0.0000000000000000e+00  4.1039733326492212e-01 -1.9538682928058573e-01 0.0000000000000000e+00  4.8215779043010215e-01 -2.1824670276772004e-03 0.0000000000000000e+00  3.6842557805740461e-01 7.4052692903702935e-02 0.0000000000000000e+00  2.8112746398138266e-01 -5.8390450186169618e-02 0.0000000000000000e+00  9.1719512662935998e-01 1.3967896873563467e-02 0.0000000000000000e+00  4.7376004794315041e-01 -5.7706572522856318e-03 0.0000000000000000e+00  6.6712944761396209e-01 -1.7753056055210339e-01 0.0000000000000000e+00  4.1738164469022704e-01 2.2893052547635497e-02 0.0000000000000000e+00  4.4601915846568818e-01 1.6290381832524778e-03 0.0000000000000000e+00  7.6040253077144671e-01 8.7290632489816750e-02 0.0000000000000000e+00  7.5836115130714599e-01 4.3054583864760940e-03 0.0000000000000000e+00  8.9670572831751194e-01 -1.8611091172482455e-02 0.0000000000000000e+00  9.9436956885611638e-01 5.0309709245791555e-03 0.0000000000000000e+00  7.1895437833637976e-01 -2.7213580309523810e-03 0.0000000000000000e+00  4.4546812849119516e-01 -5.5207419841378914e-04 0.0000000000000000e+00  9.6025392478232607e-01 -2.7075548071914785e-02 0.0000000000000000e+00  6.8151443353239261e-01 -2.5557141312766707e-02 0.0000000000000000e+00  4.0291792445067909e-01 -1.4472144429967882e-02 0.0000000000000000e+00  8.0834935003690445e-01 -1.6740776913620792e-02 0.0000000000000000e+00  6.4371221263100542e-01 1.8648695724467074e-01 0.0000000000000000e+00  8.0740801623894265e-01 1.5393423164438452e-02 0.0000000000000000e+00  9.6383879612777656e-01 1.5516936712203635e-02 0.0000000000000000e+00  3.9264976987655154e-01 -3.4301306664273651e-03 0.0000000000000000e+00  8.6163344477910275e-01 1.0523251245770908e-01 0.0000000000000000e+00  6.4809253347820450e-01 -9.5350097208369254e-03 0.0000000000000000e+00  7.1341301661286882e-01 -7.3921133949551949e-03 0.0000000000000000e+00  6.6115951383137794e-01 1.6713197401717832e-02 0.0000000000000000e+00  6.0728818828734776e-01 -9.4664868990370132e-02 0.0000000000000000e+00  3.8167422127410999e-01 9.2172396380839749e-03 0.0000000000000000e+00  7.6817863924879537e-01 -8.2363442356760158e-02 0.0000000000000000e+00  4.2486502041996210e-01 -1.2689407496322700e-03 0.0000000000000000e+00  3.8389280999296210e-01 1.4259176748410640e-01 0.0000000000000000e+00  4.4434323468270137e-01 -3.4577960170650394e-02 0.0000000000000000e+00  4.4784947773326766e-01 3.4987647350854849e-02 0.0000000000000000e+00  3.8358669316788824e-01 -1.4286508828295280e-01 0.0000000000000000e+00  8.5801085535355093e-01 -6.1097884500150364e-02 0.0000000000000000e+00  7.2215464116827277e-01 1.2744040581088648e-02 0.0000000000000000e+00  6.9475125105881697e-01 5.9318977384380932e-02 0.0000000000000000e+00  8.2304687298847057e-01 -1.1624037300358121e-02 0.0000000000000000e+00  7.2611216704618031e-01 1.4454272717024780e-03 0.0000000000000000e+00  7.0829873008021504e-01 -8.9467734687190563e-04 0.0000000000000000e+00  4.0797350553164458e-01 -2.6637232249448377e-03 0.0000000000000000e+00  6.0539152710263955e-01 -9.6308589311440679e-02 0.0000000000000000e+00  9.9762464836876030e-01 -2.6187493063830557e-03 0.0000000000000000e+00  6.1391987042800866e-01 3.9042866577022751e-02 0.0000000000000000e+00  3.9793807757657923e-01 3.7980494529036230e-03 0.0000000000000000e+00  4.3230073770893213e-01 -1.0602434668625534e-03 0.0000000000000000e+00  4.0587507796299849e-01 3.9275601379004465e-04 0.0000000000000000e+00  4.2436170220235298e-01 2.6164045704012836e-03 0.0000000000000000e+00  7.2715097066367385e-01 7.2780121390613652e-03 0.0000000000000000e+00  6.2675199388403191e-01 9.8934903175386127e-02 0.0000000000000000e+00  6.9490257995075655e-01 8.2514014363917860e-04 0.0000000000000000e+00  1.1851517234321596e-01 -4.9338242811365285e-02 0.0000000000000000e+00  5.4841352191260095e-01 6.8124324961805913e-02 0.0000000000000000e+00  6.8054290382134219e-01 -1.8465735343620494e-02 0.0000000000000000e+00  7.2626226246630488e-01 3.6884764886502557e-03 0.0000000000000000e+00  1.1830129039657854e-01 4.9045279954633723e-02 0.0000000000000000e+00  -6.7768277320347939e-03 3.0016281177868375e-02 0.0000000000000000e+00  -1.2484779423192535e-02 3.4733503917168312e-02 0.0000000000000000e+00  -1.2555978358112800e-02 -3.4698720192316679e-02 0.0000000000000000e+00  9.7358164103087536e-03 -3.5669108497081665e-02 0.0000000000000000e+00  3.9149168345701552e-01 9.5641437596115473e-04 0.0000000000000000e+00  3.2626050933365025e-01 -1.6496226562723440e-02 0.0000000000000000e+00  9.0046880315298394e-01 -2.7583317839527954e-02 0.0000000000000000e+00  7.3151066280212462e-01 -4.9255148446594376e-03 0.0000000000000000e+00  9.4263680482803303e-01 3.8399944564910651e-02 0.0000000000000000e+00  2.4432953552123632e-01 -2.5708771808023400e-02 0.0000000000000000e+00  7.1692529954270445e-01 -1.3706082379399416e-03 0.0000000000000000e+00  3.4719765160507710e-01 2.7613687789586204e-03 0.0000000000000000e+00  7.4496434053803473e-01 -1.1629899022076052e-03 0.0000000000000000e+00  6.6722793188937679e-01 -2.0531247599202876e-01 0.0000000000000000e+00  8.2641390902966927e-01 6.9286410194540946e-02 0.0000000000000000e+00  8.2552393219995590e-01 -4.2240700048549358e-02 0.0000000000000000e+00  3.4896381485907757e-01 -5.1037791161151255e-03 0.0000000000000000e+00  7.2273778304389158e-01 1.5058033278385599e-03 0.0000000000000000e+00  1.1052798543369993e-01 3.9376776231365124e-02 0.0000000000000000e+00  7.4731009720941233e-01 -1.0505116239832177e-02 0.0000000000000000e+00  7.5853652824025619e-01 6.1325624194002580e-02 0.0000000000000000e+00  9.8765795501381459e-01 1.0794959226964645e-02 0.0000000000000000e+00  2.2662928666157270e-01 2.1690098605519324e-02 0.0000000000000000e+00  7.5878267420876788e-01 -1.4093657210710866e-02 0.0000000000000000e+00  8.9406710023742952e-01 -1.1099294718337083e-01 0.0000000000000000e+00  3.3691715621816554e-01 -1.2568945011158810e-02 0.0000000000000000e+00  7.6358812797099218e-01 -6.2417250393526980e-04 0.0000000000000000e+00  9.5010265494323198e-01 -3.2025392778202315e-02 0.0000000000000000e+00  8.1416709397354692e-01 1.6649326781595972e-01 0.0000000000000000e+00  9.4861168996088441e-01 3.2895739432075140e-02 0.0000000000000000e+00  8.1564952012499237e-01 -1.6959120623435811e-01 0.0000000000000000e+00  6.5457110947692343e-01 -5.4325384575374926e-02 0.0000000000000000e+00  9.6433404873494388e-02 -3.9393308451516708e-02 0.0000000000000000e+00  2.2894317143473233e-01 3.2472295551343837e-02 0.0000000000000000e+00  2.7656490741539108e-01 1.8892756949319273e-02 0.0000000000000000e+00  5.5131717478462661e-01 2.6004660876984605e-02 0.0000000000000000e+00  7.7875320079814792e-01 2.7593215933443861e-02 0.0000000000000000e+00  6.1909175897479607e-01 1.7310363200110303e-03 0.0000000000000000e+00  3.0228092746039614e-01 -4.5630510959633842e-03 0.0000000000000000e+00  8.9159061331131628e-01 -8.0752860176273936e-03 0.0000000000000000e+00  6.2133402477144684e-01 -4.2258570803623483e-02 0.0000000000000000e+00  2.5880516161900136e-01 2.8707445803673004e-03 0.0000000000000000e+00  2.0845583488182742e-01 -2.3193679063066699e-02 0.0000000000000000e+00  5.9867105738155302e-01 -1.6544024736760983e-03 0.0000000000000000e+00  3.2380471207319422e-01 1.0039893377500107e-02 0.0000000000000000e+00  7.4342172521064909e-01 2.8587564248603527e-03 0.0000000000000000e+00  6.7290077550709804e-01 2.6707727521579510e-03 0.0000000000000000e+00  5.7768593654745903e-01 7.4136803787663774e-03 0.0000000000000000e+00  2.6508320648660799e-01 7.3763385576790727e-03 0.0000000000000000e+00  7.7713340795897778e-01 1.1471816874179037e-02 0.0000000000000000e+00  7.4011425013890175e-01 2.0363034237326154e-02 0.0000000000000000e+00  4.7926232961113457e-01 -6.4231869945054615e-02 0.0000000000000000e+00  6.2764276822510601e-01 7.8760469883399242e-02 0.0000000000000000e+00  9.5070397125679318e-01 -3.9309348484491642e-02 0.0000000000000000e+00  7.6505588688615866e-01 -1.1167601774920897e-03 0.0000000000000000e+00  7.5261402708834102e-01 -2.8614505978631150e-04 0.0000000000000000e+00  7.7534512566378178e-01 2.1583329190754137e-05 0.0000000000000000e+00  6.5993263090802090e-01 2.8380790578444729e-02 0.0000000000000000e+00  4.9570909104719307e-01 -1.8017080604971525e-01 0.0000000000000000e+00  6.7468482476126779e-01 2.0307498032750440e-01 0.0000000000000000e+00  2.7412337442412626e-01 6.1134690075644743e-04 0.0000000000000000e+00  6.0000687797100161e-01 -3.9274601030745343e-02 0.0000000000000000e+00  5.7818697066867442e-01 1.4768604238839514e-02 0.0000000000000000e+00  6.1600480034915939e-01 -1.6896402728751433e-01 0.0000000000000000e+00  6.2290157319697592e-01 1.6605201537173070e-01 0.0000000000000000e+00  7.5929579449319440e-01 5.9893411837122765e-05 0.0000000000000000e+00  7.9351950352156397e-01 1.6543812007647251e-03 0.0000000000000000e+00  7.6496419764254742e-01 6.1075520902412667e-02 0.0000000000000000e+00  7.5652048087926360e-01 -6.5645030482153810e-02 0.0000000000000000e+00  3.0547939130005214e-01 -1.0730796440472032e-03 0.0000000000000000e+00  5.4296549711221032e-01 3.5438600681717711e-02 0.0000000000000000e+00  5.4293676214355058e-01 -3.5456613436591344e-02 0.0000000000000000e+00  2.9497669137393567e-01 -1.2982436859458940e-01 0.0000000000000000e+00  5.9955093560167627e-01 4.3814792622765292e-03 0.0000000000000000e+00  5.3828378677232458e-01 1.0548479640337392e-01 0.0000000000000000e+00  8.5765083765066530e-01 -2.6934020111418150e-03 0.0000000000000000e+00  5.8513044644561896e-01 6.7738187800112104e-04 0.0000000000000000e+00  6.0425981174274179e-01 -7.3044440302669341e-04 0.0000000000000000e+00  5.8197811100269692e-01 7.7480213160253568e-03 0.0000000000000000e+00  2.1329513253175583e-01 8.2540823737268856e-02 0.0000000000000000e+00  5.0068877039616544e-01 -1.0792049652209278e-01 0.0000000000000000e+00  6.2266213878827537e-01 -1.0208931755168956e-02 0.0000000000000000e+00  6.3106059799241565e-01 -2.6265528885170194e-03 0.0000000000000000e+00  2.7525660033984889e-01 -6.8945817838068446e-04 0.0000000000000000e+00  2.6002616892474384e-01 -4.5598445972879487e-03 0.0000000000000000e+00  8.1126982137487502e-01 -4.3365624801192770e-02