<?xml version="1.0"?>
<VTKFile type="UnstructuredGrid"  version="0.1"  >
<UnstructuredGrid>
<Piece  NumberOfPoints="406" NumberOfCells="722">
<Points>
<DataArray  type="Float64"  NumberOfComponents="3"  format="ascii">-6 -2 0  -6 2 0  6 2 0  6 -2 0  -2.8 0 0  -1.2 0 0  -5.500000000001853 -2 0  -5.000000000003705 -2 0  -4.500000000005556 -2 0  -4.000000000007409 -2 0  -3.50000000000926 -2 0  -3.000000000011112 -2 0  -2.500000000012963 -2 0  -2.000000000014814 -2 0  -1.500000000016665 -2 0  -1.000000000018516 -2 0  -0.5000000000203677 -2 0  -2.204547655537681e-11 -2 0  0.4999999999796305 -2 0  0.9999999999814779 -2 0  1.499999999983327 -2 0  1.999999999985175 -2 0  2.499999999987029 -2 0  2.999999999988882 -2 0  3.499999999990735 -2 0  3.999999999992589 -2 0  4.49999999999444 -2 0  4.999999999996293 -2 0  5.499999999998147 -2 0  6 -1.500000000001387 0  6 -1.000000000002774 0  6 -0.5000000000041616 0  6 -5.505595979116151e-12 0  6 0.4999999999958384 0  6 0.9999999999972258 0  6 1.499999999998613 0  5.500000000001853 2 0  5.000000000003705 2 0  4.500000000005556 2 0  4.000000000007409 2 0  3.50000000000926 2 0  3.000000000011112 2 0  2.500000000012963 2 0  2.000000000014814 2 0  1.500000000016665 2 0  1.000000000018516 2 0  0.5000000000203677 2 0  2.204547655537681e-11 2 0  -0.4999999999796305 2 0  -0.9999999999814779 2 0  -1.499999999983327 2 0  -1.999999999985175 2 0  -2.499999999987029 2 0  -2.999999999988882 2 0  -3.499999999990735 2 0  -3.999999999992589 2 0  -4.49999999999444 2 0  -4.999999999996293 2 0  -5.499999999998147 2 0  -6 1.500000000001387 0  -6 1.000000000002774 0  -6 0.5000000000041616 0  -6 5.505595979116151e-12 0  -6 -0.4999999999958384 0  -6 -0.9999999999972258 0  -6 -1.499999999998613 0  -2.776753453941174 -0.1914525314286965 0  -2.708364820523325 -0.3717785376335722 0  -2.598808598538216 -0.5304981265911284 0  -2.454451797386757 -0.65838709271366 0  -2.283683909636528 -0.748012994147384 0  -2.096429344207466 -0.7941670992780535 0  -1.903570655798842 -0.7941670992788195 0  -1.716316090368095 -0.7480129941491368 0  -1.545548202616307 -0.6583870927157747 0  -1.401191401463757 -0.530498126593356 0  -1.291635179477527 -0.371778537635196 0  -1.223246546059047 -0.1914525314295925 0  -1.223246546058803 0.1914525314286035 0  -1.291635179476594 0.3717785376334188 0  -1.401191401461634 0.5304981265909601 0  -1.545548202612898 0.6583870927134221 0  -1.716316090363093 0.7480129941472402 0  -1.903570655792394 0.7941670992780367 0  -2.096429344201276 0.7941670992788055 0  -2.283683909631911 0.7480129941491347 0  -2.454451797383697 0.6583870927157729 0  -2.598808598536385 0.530498126593196 0  -2.70836482052258 0.3717785376349917 0  -2.776753453940975 0.1914525314295042 0  0.4588466633941945 0.2704149791022056 0  -4.424312812173863 0.2760319703992994 0  -3.803977598762586 -0.6841584599595646 0  -0.1330968762779425 -0.6798763971615133 0  2.451109587541276 3.169800318630399e-13 0  -3.563610936250569 0.5929994091167295 0  4.204753319582647 0.2820669554523581 0  -0.4390897559348154 0.6178095532273566 0  -3.041446812595122 1.175550440315544 0  -0.9622132806516797 1.132103015222783 0  1.069493318942931 -0.773608156980569 0  -4.924330687080279 -0.7127064269610045 0  -3.024693497948964 -1.195179289656404 0  -0.9648749555625579 -1.256854520022574 0  -3.443624282349383 -0.2044158249759613 0  -0.5611500783757608 -0.1747080110423833 0  1.60270880116926 0.7487034276124258 0  3.488352576142236 -0.8228939860777884 0  4.816375011670135 -0.8163750116689444 0  3.243628045085357 0.8578172796997985 0  -4.228632884234073 1.228069101636678 0  -2.365220384435482 -1.356128547810356 0  -1.637465979486354 1.3571687267915 0  -1.642380978561139 -1.359365080147485 0  -2.362988915989869 1.356737096243695 0  -5.134120367293631 0.8356299802910161 0  2.077496878467794 -0.9514080034522553 0  4.960859291178299 0.9608592911785537 0  0.3293120056474302 1.148965409695154 0  -5.157560560414062 0.09447106214747865 0  -3.14779387667392 -0.6330563038825547 0  -3.148134455585257 0.4354299640428653 0  -0.8464439673630421 0.4159277415926296 0  -0.9918125625721008 -0.7191748422889824 0  -4.355349213295776 -1.234510499778242 0  1.582074659164868 -0.06850205959954866 0  2.400584045214166 1.204278622181321 0  5.102831660739063 0.03453404176596848 0  4.083259768981113 1.154272958349666 0  -3.992394834362243 -0.1621022234411988 0  0.4290302718942113 -1.225465289645401 0  -3.681487986394671 -1.310544246656267 0  -3.640289698916164 1.187023654838123 0  0.468851680921228 -0.447055967952278 0  3.315209904217932 0.05667935655546536 0  -2.541160649745046 -1.046980928586996 0  -1.45196684542695 1.044189935346116 0  -2.000844595891861 -1.207983108473125 0  -1.453092202970521 -1.061139264918894 0  -2.000050543938391 1.207806685704176 0  -2.548033154566413 1.04418993534851 0  4.13054585796652 -1.232871249381608 0  -0.3301617095463629 1.221692405319566 0  -0.2880491989587189 -1.359626628407983 0  -0.0758941643813178 0.132275811829787 0  2.826389221580753 -1.233168480096227 0  -2.922070412327736 0.7575752117792038 0  1.003070890178416 1.271347915034201 0  -5.319521816151902 -1.310543894393663 0  -1.070407062963812 0.7877698545098388 0  -4.562499863038985 -0.2302396981426722 0  -3.164226661545047 0.07179577787350272 0  -0.9091377812900333 0.132454654016971 0  4.116029045943655 -0.4851826871817362 0  5.316659189209927 -1.316659189208741 0  -0.9498828454673396 -0.4149758979014553 0  -4.037769805263969 0.6896174350675625 0  1.431664772855882 -1.327784137638992 0  -3.646693623568034 0.1600006358878044 0  -2.878371345483476 -0.7910345833001061 0  1.062603041385242 0.2894765870627741 0  -0.547955103783681 0.1635272504420374 0  -4.804809838419659 1.41016301576038 0  -3.042895319571192 -0.3694931303482478 0  -4.59252578392403 0.792267765362792 0  2.823271260730033 -0.5472430318427347 0  -4.28575390662405 -0.7521491832384866 0  -0.5524005545121191 -0.9037367558558163 0  1.815219025072439 1.388812135783969 0  -1.288398729718543 -0.8178399475601057 0  -5.424388493366639 1.35375165044146 0  -2.256991952837567 -1.049538527273222 0  -1.739586738723494 -1.052327527873255 0  -1.738827359988536 1.050180627239116 0  -2.257795730428802 1.049701225145305 0  -0.62222340523776 -0.5483611729237363 0  2.065188519029698 0.5424877383589943 0  0.1055865106318892 0.7347782870471022 0  1.013082573993895 -0.2061877611231605 0  -5.428323520618333 -0.4386412085227075 0  5.374041502384443 -0.5304401760993408 0  3.435185060219232 -1.377658617395091 0  -3.302377238490527 0.8841390072780534 0  -0.9902123298072768 -0.124175295282554 0  0.7186958547669859 0.8724503317343631 0  2.941237214953417 1.390391532351976 0  4.708037787864423 -1.340276032051348 0  5.395029680982659 1.395029680983341 0  3.591022587550188 1.348260650408605 0  2.759385971589342 0.4857447325740718 0  -0.6832705231418494 0.8879387563573758 0  5.437781298507145 0.5981501503262471 0  -2.698603003287285 1.617130043745112 0  -3.463358189947519 -1.013588318179017 0  1.710866040171871 -0.6978716337870808 0  3.642182982762737 0.4555704362064124 0  -2.699802128031161 -1.618310703146212 0  -1.3020054856637 1.619819977935582 0  -2.000000000004996 -1.566396763829867 0  -1.999999999994794 1.566396763830688 0  -1.247812462071684 -1.595232739507426 0  4.59429106759859 1.420052135572917 0  0.9448382581152466 -1.440259145469251 0  -0.116376100998861 -0.2606209011258676 0  -4.774521510507792 0.4245390872783272 0  -2.983910172370106 -0.1208000607277856 0  -3.353983741142061 1.576062863985777 0  -5.473352579109997 0.4917619255280954 0  -4.828650470275986 -1.493148538517745 0  4.639973657165532 -0.2833178611094909 0  -2.660279445404468 0.7699932347178977 0  -1.335045190775955 0.7744876666923373 0  -3.395669172689978 0.2584951122361346 0  2.279110606119369 -1.465899541383697 0  4.734317729212562 0.4520963557364723 0  -0.6334913028224612 1.584213953723378 0  2.121854101359879 -0.4289611127787379 0  -3.474459720833238 -0.4977581316675216 0  -1.066539898844178 0.3411379476537602 0  -3.361849707555382 -1.611428512420182 0  -4.099039818938317 0.3306400369415774 0  -2.935324777364672 0.354721898811665 0  -3.973578595052027 1.482940358734671 0  3.784450148635689 -0.0702780807301525 0  -1.191348122671212 -0.5614501189722798 0  -2.838672605956353 -0.5493179047027598 0  -1.184983441257359 0.5617520886612424 0  -2.811184099847449 0.5574240755049175 0  0.2702752249355158 -0.8003643570420809 0  -0.6945947797857237 -1.593893965175195 0  0.001175881878679056 1.504521009023778 0  0.6072931735145096 1.501814722697789 0  -3.991896293645949 -1.047264188412552 0  -3.734097395159253 -0.3261671578666079 0  -5.539652387691843 -0.8857154182585802 0  -4.395061924111849 1.563293728588296 0  0.2258327611651416 -0.08745142624872881 0  -3.774816634825771 0.8676973328379478 0  2.208484493569073 1.6256686312487 0  0.1309939514660535 -1.566169703482512 0  -5.551414360955331 0.9459842275970113 0  -4.04734138658365 -1.51163984963472 0  -4.947145019546805 -0.3299925153029702 0  4.320410447198621 0.6970857582435144 0  -4.707557346727139 -1.000565649857444 0  1.353711468973986 1.582551234446199 0  1.674156483558973 0.3266252271732694 0  -4.039105552973997 -0.4537604746027087 0  0.01051727619263377 -1.088858357362194 0  -0.2234942609176301 0.8619127912343982 0  -2.95903482691863 0.1219373374385197 0  -4.682467695920681 0.0804575682243254 0  5.535750224195656 -0.1525732643419722 0  -4.290083947414376 -0.0005258314026840717 0  1.136102562417988 0.7655312464039168 0  -2.816589394567214 0.9927597419785312 0  -2.645374456162409 -0.7645902451387543 0  4.18414576655837 1.624276131878667 0  0.7127337088822223 -0.9006358935856398 0  1.972418102153911 0.9727040774616764 0  -2.42199174813501 0.8591219219254587 0  -2.418604734200992 -0.8552987735117754 0  -5.573597213364169 -0.03612430678117123 0  2.024792870869397 0.05574071630590883 0  -1.578875191508968 0.861424470724936 0  -1.54706008231699 -0.8630049102346303 0  3.848662181064435 -1.569601980075533 0  -2.000000000003871 -0.9746445732264465 0  -1.99999999
[...]
<PointData  Vectors="f_22"> 
<DataArray  type="Float64"  Name="f_22"  NumberOfComponents="3" format="ascii">0.0000000000000000e+00 0.0000000000000000e+00 0.0000000000000000e+00  0.0000000000000000e+00 0.0000000000000000e+00 0.0000000000000000e+00  0.0000000000000000e+00 0.0000000000000000e+00 0.0000000000000000e+00  0.0000000000000000e+00 0.0000000000000000e+00 0.0000000000000000e+00  9.9999995720752821e-01 0.0000000000000000e+00 0.0000000000000000e+00  9.9999995720752821e-01 0.0000000000000000e+00 0.0000000000000000e+00  0.0000000000000000e+00 0.0000000000000000e+00 0.0000000000000000e+00  0.0000000000000000e+00 0.0000000000000000e+00 0.0000000000000000e+00  0.0000000000000000e+00 0.0000000000000000e+00 0.0000000000000000e+00  0.0000000000000000e+00 0.0000000000000000e+00 0.0000000000000000e+00  0.0000000000000000e+00 0.0000000000000000e+00 0.0000000000000000e+00  0.0000000000000000e+00 0.0000000000000000e+00 0.0000000000000000e+00  0.0000000000000000e+00 0.0000000000000000e+00 0.0000000000000000e+00  0.0000000000000000e+00 0.0000000000000000e+00 0.0000000000000000e+00  0.0000000000000000e+00 0.0000000000000000e+00 0.0000000000000000e+00  0.0000000000000000e+00 0.0000000000000000e+00 0.0000000000000000e+00  0.0000000000000000e+00 0.0000000000000000e+00 0.0000000000000000e+00  0.0000000000000000e+00 0.0000000000000000e+00 0.0000000000000000e+00  0.0000000000000000e+00 0.0000000000000000e+00 0.0000000000000000e+00  0.0000000000000000e+00 0.0000000000000000e+00 0.0000000000000000e+00  0.0000000000000000e+00 0.0000000000000000e+00 0.0000000000000000e+00  0.0000000000000000e+00 0.0000000000000000e+00 0.0000000000000000e+00  0.0000000000000000e+00 0.0000000000000000e+00 0.0000000000000000e+00  0.0000000000000000e+00 0.0000000000000000e+00 0.0000000000000000e+00  0.0000000000000000e+00 0.0000000000000000e+00 0.0000000000000000e+00  0.0000000000000000e+00 0.0000000000000000e+00 0.0000000000000000e+00  0.0000000000000000e+00 0.0000000000000000e+00 0.0000000000000000e+00  0.0000000000000000e+00 0.0000000000000000e+00 0.0000000000000000e+00  0.0000000000000000e+00 0.0000000000000000e+00 0.0000000000000000e+00  3.7538029135649109e-01 -1.9332308439519547e-04 0.0000000000000000e+00  6.0932288601609930e-01 -5.5980340288587580e-04 0.0000000000000000e+00  7.4375110279851997e-01 -5.3621396483031049e-04 0.0000000000000000e+00  7.8738114644889456e-01 -3.1809028221666662e-05 0.0000000000000000e+00  7.4369464560122578e-01 4.9869330928608787e-04 0.0000000000000000e+00  6.0934870906208149e-01 5.7555627917072437e-04 0.0000000000000000e+00  3.7534314579754852e-01 2.1823359432679819e-04 0.0000000000000000e+00  0.0000000000000000e+00 0.0000000000000000e+00 0.0000000000000000e+00  0.0000000000000000e+00 0.0000000000000000e+00 0.0000000000000000e+00  0.0000000000000000e+00 0.0000000000000000e+00 0.0000000000000000e+00  0.0000000000000000e+00 0.0000000000000000e+00 0.0000000000000000e+00  0.0000000000000000e+00 0.0000000000000000e+00 0.0000000000000000e+00  0.0000000000000000e+00 0.0000000000000000e+00 0.0000000000000000e+00  0.0000000000000000e+00 0.0000000000000000e+00 0.0000000000000000e+00  0.0000000000000000e+00 0.0000000000000000e+00 0.0000000000000000e+00  0.0000000000000000e+00 0.0000000000000000e+00 0.0000000000000000e+00  0.0000000000000000e+00 0.0000000000000000e+00 0.0000000000000000e+00  0.0000000000000000e+00 0.0000000000000000e+00 0.0000000000000000e+00  0.0000000000000000e+00 0.0000000000000000e+00 0.0000000000000000e+00  0.0000000000000000e+00 0.0000000000000000e+00 0.0000000000000000e+00  0.0000000000000000e+00 0.0000000000000000e+00 0.0000000000000000e+00  0.0000000000000000e+00 0.0000000000000000e+00 0.0000000000000000e+00  0.0000000000000000e+00 0.0000000000000000e+00 0.0000000000000000e+00  0.0000000000000000e+00 0.0000000000000000e+00 0.0000000000000000e+00  0.0000000000000000e+00 0.0000000000000000e+00 0.0000000000000000e+00  0.0000000000000000e+00 0.0000000000000000e+00 0.0000000000000000e+00  0.0000000000000000e+00 0.0000000000000000e+00 0.0000000000000000e+00  0.0000000000000000e+00 0.0000000000000000e+00 0.0000000000000000e+00  0.0000000000000000e+00 0.0000000000000000e+00 0.0000000000000000e+00  0.0000000000000000e+00 0.0000000000000000e+00 0.0000000000000000e+00  3.7373739183874871e-01 -6.6655087018863135e-04 0.0000000000000000e+00  6.0841718806161704e-01 -1.1724321997485254e-03 0.0000000000000000e+00  7.4488814977783435e-01 -9.4246055168708274e-04 0.0000000000000000e+00  7.8990669267163838e-01 -2.4592377103786580e-05 0.0000000000000000e+00  7.4550506533369709e-01 1.0556999389520121e-03 0.0000000000000000e+00  6.0864766640023948e-01 1.2366705731476587e-03 0.0000000000000000e+00  3.7385959233865307e-01 6.8387110252230506e-04 0.0000000000000000e+00  9.9999995720752821e-01 0.0000000000000000e+00 0.0000000000000000e+00  9.9999995720752821e-01 0.0000000000000000e+00 0.0000000000000000e+00  9.9999995720752821e-01 0.0000000000000000e+00 0.0000000000000000e+00  9.9999995720752821e-01 0.0000000000000000e+00 0.0000000000000000e+00  9.9999995720752821e-01 0.0000000000000000e+00 0.0000000000000000e+00  9.9999995720752821e-01 0.0000000000000000e+00 0.0000000000000000e+00  9.9999995720752821e-01 0.0000000000000000e+00 0.0000000000000000e+00  9.9999995720752821e-01 0.0000000000000000e+00 0.0000000000000000e+00  9.9999995720752821e-01 0.0000000000000000e+00 0.0000000000000000e+00  9.9999995720752821e-01 0.0000000000000000e+00 0.0000000000000000e+00  9.9999995720752821e-01 0.0000000000000000e+00 0.0000000000000000e+00  9.9999995720752821e-01 0.0000000000000000e+00 0.0000000000000000e+00  9.9999995720752821e-01 0.0000000000000000e+00 0.0000000000000000e+00  9.9999995720752821e-01 0.0000000000000000e+00 0.0000000000000000e+00  9.9999995720752821e-01 0.0000000000000000e+00 0.0000000000000000e+00  9.9999995720752821e-01 0.0000000000000000e+00 0.0000000000000000e+00  9.9999995720752821e-01 0.0000000000000000e+00 0.0000000000000000e+00  9.9999995720752821e-01 0.0000000000000000e+00 0.0000000000000000e+00  9.9999995720752821e-01 0.0000000000000000e+00 0.0000000000000000e+00  9.9999995720752821e-01 0.0000000000000000e+00 0.0000000000000000e+00  9.9999995720752821e-01 0.0000000000000000e+00 0.0000000000000000e+00  9.9999995720752821e-01 0.0000000000000000e+00 0.0000000000000000e+00  9.9999995720752821e-01 0.0000000000000000e+00 0.0000000000000000e+00  9.9999995720752821e-01 0.0000000000000000e+00 0.0000000000000000e+00  8.7499108788707591e-01 2.0777309887418372e-02 0.0000000000000000e+00  7.8573658327022788e-01 -5.7514170233072858e-03 0.0000000000000000e+00  7.1495680577719634e-01 3.4347991215241104e-02 0.0000000000000000e+00  7.6540902197486560e-01 -5.9167236309953714e-02 0.0000000000000000e+00  8.1398948824855322e-01 1.7171920655646651e-05 0.0000000000000000e+00  7.4980730462231826e-01 -5.0431368174184511e-02 0.0000000000000000e+00  7.7807973113954687e-01 1.5851017449984111e-03 0.0000000000000000e+00  8.2489041256100182e-01 5.6271135688934618e-02 0.0000000000000000e+00  4.5687985136397341e-01 -9.8744444285193203e-02 0.0000000000000000e+00  4.3930385107636627e-01 8.9568750036848679e-02 0.0000000000000000e+00  6.8642963272048607e-01 -2.8751150393119183e-02 0.0000000000000000e+00  6.9956777555492111e-01 4.4292338244626599e-03 0.0000000000000000e+00  4.4328584069709520e-01 9.8215768412539442e-02 0.0000000000000000e+00  3.2230555645103309e-01 -8.0415459032172121e-02 0.0000000000000000e+00  8.4883286991906082e-01 2.7342535027313684e-02 0.0000000000000000e+00  9.7684148141352845e-01 -1.0837911948461882e-02 0.0000000000000000e+00  6.9279886988095496e-01 1.9383707614403743e-02 0.0000000000000000e+00  6.6684572178867496e-01 -4.9228525562697838e-03 0.0000000000000000e+00  6.6946155519318162e-01 -1.8026792116572377e-03 0.0000000000000000e+00  6.5524148033673479e-01 5.8138345863024618e-03 0.0000000000000000e+00  5.0482222677012600e-01 -1.2158141136741274e-02 0.0000000000000000e+00  2.0594141534520535e-01 1.0558971669879848e-01 0.0000000000000000e+00  1.5900354831926633e-01 1.9582389983142857e-02 0.0000000000000000e+00  1.5689456310582800e-01 -1.8495581514582259e-02 0.0000000000000000e+00  2.0505712507093551e-01 -1.0536782253662572e-01 0.0000000000000000e+00  6.6380321537130715e-01 -2.9930620991175908e-03 0.0000000000000000e+00  6.1674304251584444e-01 -1.3296816818083030e-02 0.0000000000000000e+00  6.2249622320451548e-01 1.4676796885288404e-03 0.0000000000000000e+00  4.8552302400666697e-01 4.5801958475023892e-02 0.0000000000000000e+00  7.9055006485162271e-01 -4.2564406926719678e-04 0.0000000000000000e+00  7.5566603224272932e-01 1.0823003165110023e-01 0.0000000000000000e+00  8.3635157172909469e-01 -8.8253500290630907e-02 0.0000000000000000e+00  9.5723393364672349e-01 2.2623936902828535e-02 0.0000000000000000e+00  8.3217331427622876e-01 -6.1300519987888352e-02 0.0000000000000000e+00  5.0408536799133630e-01 9.6842823787472131e-03 0.0000000000000000e+00  8.3771151466644522e-01 -2.5396658370213186e-03 0.0000000000000000e+00  5.1107251316942037e-01 8.0129761021552337e-03 0.0000000000000000e+00  7.8877600724275398e-01 6.8962023410522064e-05 0.0000000000000000e+00  5.4505709997412866e-01 2.4602863551776355e-03 0.0000000000000000e+00  8.0964825780287286e-01 7.9298461650442673e-03 0.0000000000000000e+00  4.4678002081069645e-01 -3.8354669803541436e-02 0.0000000000000000e+00  4.4562389218705389e-01 2.7739924702223560e-02 0.0000000000000000e+00  5.0550722043199514e-01 -3.6162891686002424e-02 0.0000000000000000e+00  8.2843524797028556e-01 -3.2245992116920467e-02 0.0000000000000000e+00  7.9974400535151891e-01 6.4180235854713514e-04 0.0000000000000000e+00  4.5396040899850920e-01 1.7568618763058999e-01 0.0000000000000000e+00  5.2296140356296361e-01 7.4459721422953207e-02 0.0000000000000000e+00  2.7253920247921154e-01 5.7360499067566816e-02 0.0000000000000000e+00  5.0091916958028182e-01 -7.3660482084462686e-02 0.0000000000000000e+00  2.7266903175385249e-01 -5.7121996490164452e-02 0.0000000000000000e+00  4.5743653663949868e-01 -1.7590711060812919e-01 0.0000000000000000e+00  5.1030192604742663e-01 -2.1072562370391297e-03 0.0000000000000000e+00  4.0183396051356995e-01 6.7593171634871219e-02 0.0000000000000000e+00  3.1408472937335280e-01 -5.3862211054261686e-02 0.0000000000000000e+00  9.4163969601052966e-01 1.1862929126915030e-02 0.0000000000000000e+00  5.0217962240619296e-01 -5.5195787634937351e-03 0.0000000000000000e+00  6.9615362989279583e-01 -1.5702088156399330e-01 0.0000000000000000e+00  4.4709545699380776e-01 2.1999728554167312e-02 0.0000000000000000e+00  4.7421813512370603e-01 1.4259283254055555e-03 0.0000000000000000e+00  7.8894396474289463e-01 6.9840324971686130e-02 0.0000000000000000e+00  7.8803560137319828e-01 3.7701047051795864e-03 0.0000000000000000e+00  9.1030133526737012e-01 -1.6161539090401831e-02 0.0000000000000000e+00  9.9701876297128911e-01 2.5172687048676291e-03 0.0000000000000000e+00  7.4945063205180329e-01 -2.6344793227468699e-03 0.0000000000000000e+00  4.7310591605624691e-01 -6.0051954537078910e-04 0.0000000000000000e+00  9.6883647988127741e-01 -1.8121650537789163e-02 0.0000000000000000e+00  7.1016191930214534e-01 -2.2404514454565427e-02 0.0000000000000000e+00  4.3181874600228543e-01 -1.3831729196894233e-02 0.0000000000000000e+00  8.3259537777151593e-01 -1.4687961789260212e-02 0.0000000000000000e+00  6.7447548420849057e-01 1.6522757861143109e-01 0.0000000000000000e+00  8.3606506844745854e-01 1.4979799590820809e-02 0.0000000000000000e+00  9.7721888284366643e-01 1.0275209998648607e-02 0.0000000000000000e+00  4.2025253611337482e-01 -2.9609321182709702e-03 0.0000000000000000e+00  8.7695105791203387e-01 9.1891647631640844e-02 0.0000000000000000e+00  6.7726459674580453e-01 -8.2988425336134354e-03 0.0000000000000000e+00  7.4342278640661819e-01 -7.0979616016988408e-03 0.0000000000000000e+00  6.9018391862848072e-01 1.4632450494690767e-02 0.0000000000000000e+00  6.4093891363741373e-01 -8.0038573138690186e-02 0.0000000000000000e+00  4.0958015965764932e-01 8.8267127312460936e-03 0.0000000000000000e+00  7.9398264685607600e-01 -6.8738937296266373e-02 0.0000000000000000e+00  4.5266451744925512e-01 -1.1323915120587506e-03 0.0000000000000000e+00  4.3318857485683454e-01 1.3033302373888617e-01 0.0000000000000000e+00  4.9069757228563354e-01 -2.8653960202884347e-02 0.0000000000000000e+00  4.9392817071738748e-01 2.9052998377633914e-02 0.0000000000000000e+00  4.3289466381072772e-01 -1.3057571446073107e-01 0.0000000000000000e+00  8.8109850698370784e-01 -4.5907706248904528e-02 0.0000000000000000e+00  7.5189695502226139e-01 1.2247411231874035e-02 0.0000000000000000e+00  7.2319484106881837e-01 5.5979366414526270e-02 0.0000000000000000e+00  8.5157785839460198e-01 -1.1360855987295656e-02 0.0000000000000000e+00  7.5631432371250507e-01 1.2931567946871010e-03 0.0000000000000000e+00  7.3861909577442475e-01 -9.5526906016573027e-04 0.0000000000000000e+00  4.3544613449610303e-01 -2.5255660645202480e-03 0.0000000000000000e+00  6.3617004453825776e-01 -8.4864636672378937e-02 0.0000000000000000e+00  9.9881039355391998e-01 -1.1103451849930092e-03 0.0000000000000000e+00  6.4304338309479181e-01 3.8198007747752748e-02 0.0000000000000000e+00  4.2515480845484355e-01 3.6269393442197586e-03 0.0000000000000000e+00  4.5999878872675304e-01 -1.0883084226891305e-03 0.0000000000000000e+00  4.3298206346746326e-01 4.1718038517261111e-04 0.0000000000000000e+00  4.5182081991430290e-01 2.4906894512252723e-03 0.0000000000000000e+00  7.5730209771995416e-01 7.0020747147043119e-03 0.0000000000000000e+00  6.6129682450065441e-01 8.1693324180963076e-02 0.0000000000000000e+00  7.2495888515823803e-01 8.9690200583066764e-04 0.0000000000000000e+00  1.5948819011544779e-01 -4.4338402840308780e-02 0.0000000000000000e+00  5.8029011695248611e-01 6.0002887052780562e-02 0.0000000000000000e+00  7.0994934085440298e-01 -1.7670916266415444e-02 0.0000000000000000e+00  7.5677636286006178e-01 3.5290140050941968e-03 0.0000000000000000e+00  1.5917739872551914e-01 4.4072595959870030e-02 0.0000000000000000e+00  3.8959699961886210e-02 2.5442157206709021e-02 0.0000000000000000e+00  4.4146580610066731e-02 3.2976569105442596e-02 0.0000000000000000e+00  4.4083739598299206e-02 -3.2941989447614096e-02 0.0000000000000000e+00  5.5662102001935852e-02 -3.0352259365670847e-02 0.0000000000000000e+00  4.1816902933336375e-01 9.8868369366202622e-04 0.0000000000000000e+00  3.5476385624925449e-01 -1.5811707613029382e-02 0.0000000000000000e+00  9.2505206160056253e-01 -2.3286138782475665e-02 0.0000000000000000e+00  7.6131592818309513e-01 -4.2950868858668053e-03 0.0000000000000000e+00  9.5007657384038646e-01 3.3305308904783705e-02 0.0000000000000000e+00  2.7582848005524335e-01 -2.2657918115664304e-02 0.0000000000000000e+00  7.4700404803187392e-01 -1.2229975857113342e-03 0.0000000000000000e+00  3.7402690827959800e-01 2.3848137151172184e-03 0.0000000000000000e+00  7.7610827772655311e-01 -1.1529902393024520e-03 0.0000000000000000e+00  6.9658025750505892e-01 -1.8365922991498282e-01 0.0000000000000000e+00  8.4612962898273725e-01 5.8407461883610311e-02 0.0000000000000000e+00  8.4657139678937166e-01 -3.6984728556134890e-02 0.0000000000000000e+00  3.7608252362912498e-01 -4.8961933882811061e-03 0.0000000000000000e+00  7.5337049316042803e-01 1.5166721110663739e-03 0.0000000000000000e+00  1.4434405112391205e-01 3.5293186830673721e-02 0.0000000000000000e+00  7.7724462373236902e-01 -1.0101023606484166e-02 0.0000000000000000e+00  7.8337684245987271e-01 5.3854317969223374e-02 0.0000000000000000e+00  9.9065703957821116e-01 6.8690252079153472e-03 0.0000000000000000e+00  2.5635226450962428e-01 1.9116292255429074e-02 0.0000000000000000e+00  7.8695832607975247e-01 -1.2368497954418802e-02 0.0000000000000000e+00  9.0588499113273713e-01 -9.6872327131874270e-02 0.0000000000000000e+00  3.6555877931946784e-01 -1.0969792792892232e-02 0.0000000000000000e+00  7.9489424410530096e-01 -5.9710932423656410e-04 0.0000000000000000e+00  9.5783436188300974e-01 -2.5175076174194802e-02 0.0000000000000000e+00  8.3246432998863318e-01 1.4679735856839812e-01 0.0000000000000000e+00  9.5663399982238961e-01 2.5823500737794571e-02 0.0000000000000000e+00  8.3371241714834721e-01 -1.4986633036049654e-01 0.0000000000000000e+00  6.8318320494724172e-01 -5.2549179404115152e-02 0.0000000000000000e+00  1.3083953651877964e-01 -3.5198373633917132e-02 0.0000000000000000e+00  2.5822820491754317e-01 3.0735427399974691e-02 0.0000000000000000e+00  3.0429010544458762e-01 1.8208636435229332e-02 0.0000000000000000e+00  5.8131178649892368e-01 2.2742753336546372e-02 0.0000000000000000e+00  8.0458108737959932e-01 2.4251088012982057e-02 0.0000000000000000e+00  6.4817778209867960e-01 1.5735009687158597e-03 0.0000000000000000e+00  3.2776408449582084e-01 -3.9456031578135164e-03 0.0000000000000000e+00  9.1886977104550416e-01 -7.5976762159084806e-03 0.0000000000000000e+00  6.5071951741046130e-01 -3.7085285702682533e-02 0.0000000000000000e+00  2.8089823616238385e-01 2.7636539374919522e-03 0.0000000000000000e+00  2.3610300482353597e-01 -2.2120196874172132e-02 0.0000000000000000e+00  6.2764530533613372e-01 -1.5013720718836403e-03 0.0000000000000000e+00  3.5146290418682330e-01 8.7805411926399554e-03 0.0000000000000000e+00  7.7357189809559013e-01 2.4985171397066291e-03 0.0000000000000000e+00  7.0261659631254181e-01 2.6194987623988160e-03 0.0000000000000000e+00  6.0675786532601139e-01 6.4374526670269456e-03 0.0000000000000000e+00  2.8973137572251401e-01 7.0178482108036394e-03 0.0000000000000000e+00  8.0672762807070264e-01 1.0949990625842997e-02 0.0000000000000000e+00  7.6820908474290583e-01 1.7887223914244785e-02 0.0000000000000000e+00  5.0950056565711821e-01 -6.0780389049370158e-02 0.0000000000000000e+00  6.5804192011950025e-01 7.0506342075492390e-02 0.0000000000000000e+00  9.5709450081915326e-01 -3.4051209587433053e-02 0.0000000000000000e+00  7.9505058635846948e-01 -9.6120781283953055e-04 0.0000000000000000e+00  7.8391749734129890e-01 -3.0898267633607803e-04 0.0000000000000000e+00  8.0424003045728654e-01 2.2902712190447447e-05 0.0000000000000000e+00  6.8913685201049468e-01 2.7366601841741736e-02 0.0000000000000000e+00  5.3530367672793311e-01 -1.6044934060508276e-01 0.0000000000000000e+00  7.0333941003037526e-01 1.8178116737173294e-01 0.0000000000000000e+00  2.9556305914692477e-01 5.9327467361928988e-04 0.0000000000000000e+00  6.2913804296679787e-01 -3.8413226693737139e-02 0.0000000000000000e+00  6.0737639373388208e-01 1.4190016198613405e-02 0.0000000000000000e+00  6.4736734503075988e-01 -1.5361806597938127e-01 0.0000000000000000e+00  6.5362620003280247e-01 1.5101491329354852e-01 0.0000000000000000e+00  7.9011967090232915e-01 5.3331043643363413e-05 0.0000000000000000e+00  8.2366691157540939e-01 1.5844165573402358e-03 0.0000000000000000e+00  7.8680788530976453e-01 5.3713314233855468e-02 0.0000000000000000e+00  7.7962899208340342e-01 -5.7427418402413319e-02 0.0000000000000000e+00  3.2913744252467408e-01 -1.0195493131458168e-03 0.0000000000000000e+00  5.7938981266182765e-01 3.3377656916653030e-02 0.0000000000000000e+00  5.7935772151752118e-01 -3.3394453786411024e-02 0.0000000000000000e+00  3.4286167170415338e-01 -1.1622158923260739e-01 0.0000000000000000e+00  6.2851321503355495e-01 4.2022613087617025e-03 0.0000000000000000e+00  5.8066645363116942e-01 8.7925380549176521e-02 0.0000000000000000e+00  8.8584971792346368e-01 -2.6756373225600627e-03 0.0000000000000000e+00  6.1379916327081219e-01 7.4513837099897233e-04 0.0000000000000000e+00  6.3315749955987577e-01 -7.9059952912544583e-04 0.0000000000000000e+00  6.1096555811363795e-01 7.4261858451188916e-03 0.0000000000000000e+00  2.6659825694757638e-01 6.9584725197665842e-02 0.0000000000000000e+00  5.4458656561605789e-01 -8.9885425233937236e-02 0.0000000000000000e+00  6.5181619628300158e-01 -9.8339883027063948e-03 0.0000000000000000e+00  6.6019975765220595e-01 -2.5890522728800767e-03 0.0000000000000000e+00  2.9673424608056614e-01 -6.5277156181792043e-04 0.0000000000000000e+00  2.8302189638768371e-01 -4.3898600990029462e-03 0.0000000000000000e+00  8.3888792616003593e-01 -4.0504603399375796e-02 0.