<?xml version="1.0"?>
<VTKFile type="UnstructuredGrid"  version="0.1"  >
<UnstructuredGrid>
<Piece  NumberOfPoints="406" NumberOfCells="722">
<Points>
<DataArray  type="Float64"  NumberOfComponents="3"  format="ascii">-6 -2 0  -6 2 0  6 2 0  6 -2 0  -2.8 0 0  -1.2 0 0  -5.500000000001853 -2 0  -5.000000000003705 -2 0  -4.500000000005556 -2 0  -4.000000000007409 -2 0  -3.50000000000926 -2 0  -3.000000000011112 -2 0  -2.500000000012963 -2 0  -2.000000000014814 -2 0  -1.500000000016665 -2 0  -1.000000000018516 -2 0  -0.5000000000203677 -2 0  -2.204547655537681e-11 -2 0  0.4999999999796305 -2 0  0.9999999999814779 -2 0  1.499999999983327 -2 0  1.999999999985175 -2 0  2.499999999987029 -2 0  2.999999999988882 -2 0  3.499999999990735 -2 0  3.999999999992589 -2 0  4.49999999999444 -2 0  4.999999999996293 -2 0  5.499999999998147 -2 0  6 -1.500000000001387 0  6 -1.000000000002774 0  6 -0.5000000000041616 0  6 -5.505595979116151e-12 0  6 0.4999999999958384 0  6 0.9999999999972258 0  6 1.499999999998613 0  5.500000000001853 2 0  5.000000000003705 2 0  4.500000000005556 2 0  4.000000000007409 2 0  3.50000000000926 2 0  3.000000000011112 2 0  2.500000000012963 2 0  2.000000000014814 2 0  1.500000000016665 2 0  1.000000000018516 2 0  0.5000000000203677 2 0  2.204547655537681e-11 2 0  -0.4999999999796305 2 0  -0.9999999999814779 2 0  -1.499999999983327 2 0  -1.999999999985175 2 0  -2.499999999987029 2 0  -2.999999999988882 2 0  -3.499999999990735 2 0  -3.999999999992589 2 0  -4.49999999999444 2 0  -4.999999999996293 2 0  -5.499999999998147 2 0  -6 1.500000000001387 0  -6 1.000000000002774 0  -6 0.5000000000041616 0  -6 5.505595979116151e-12 0  -6 -0.4999999999958384 0  -6 -0.9999999999972258 0  -6 -1.499999999998613 0  -2.776753453941174 -0.1914525314286965 0  -2.708364820523325 -0.3717785376335722 0  -2.598808598538216 -0.5304981265911284 0  -2.454451797386757 -0.65838709271366 0  -2.283683909636528 -0.748012994147384 0  -2.096429344207466 -0.7941670992780535 0  -1.903570655798842 -0.7941670992788195 0  -1.716316090368095 -0.7480129941491368 0  -1.545548202616307 -0.6583870927157747 0  -1.401191401463757 -0.530498126593356 0  -1.291635179477527 -0.371778537635196 0  -1.223246546059047 -0.1914525314295925 0  -1.223246546058803 0.1914525314286035 0  -1.291635179476594 0.3717785376334188 0  -1.401191401461634 0.5304981265909601 0  -1.545548202612898 0.6583870927134221 0  -1.716316090363093 0.7480129941472402 0  -1.903570655792394 0.7941670992780367 0  -2.096429344201276 0.7941670992788055 0  -2.283683909631911 0.7480129941491347 0  -2.454451797383697 0.6583870927157729 0  -2.598808598536385 0.530498126593196 0  -2.70836482052258 0.3717785376349917 0  -2.776753453940975 0.1914525314295042 0  0.4588466633941945 0.2704149791022056 0  -4.424312812173863 0.2760319703992994 0  -3.803977598762586 -0.6841584599595646 0  -0.1330968762779425 -0.6798763971615133 0  2.451109587541276 3.169800318630399e-13 0  -3.563610936250569 0.5929994091167295 0  4.204753319582647 0.2820669554523581 0  -0.4390897559348154 0.6178095532273566 0  -3.041446812595122 1.175550440315544 0  -0.9622132806516797 1.132103015222783 0  1.069493318942931 -0.773608156980569 0  -4.924330687080279 -0.7127064269610045 0  -3.024693497948964 -1.195179289656404 0  -0.9648749555625579 -1.256854520022574 0  -3.443624282349383 -0.2044158249759613 0  -0.5611500783757608 -0.1747080110423833 0  1.60270880116926 0.7487034276124258 0  3.488352576142236 -0.8228939860777884 0  4.816375011670135 -0.8163750116689444 0  3.243628045085357 0.8578172796997985 0  -4.228632884234073 1.228069101636678 0  -2.365220384435482 -1.356128547810356 0  -1.637465979486354 1.3571687267915 0  -1.642380978561139 -1.359365080147485 0  -2.362988915989869 1.356737096243695 0  -5.134120367293631 0.8356299802910161 0  2.077496878467794 -0.9514080034522553 0  4.960859291178299 0.9608592911785537 0  0.3293120056474302 1.148965409695154 0  -5.157560560414062 0.09447106214747865 0  -3.14779387667392 -0.6330563038825547 0  -3.148134455585257 0.4354299640428653 0  -0.8464439673630421 0.4159277415926296 0  -0.9918125625721008 -0.7191748422889824 0  -4.355349213295776 -1.234510499778242 0  1.582074659164868 -0.06850205959954866 0  2.400584045214166 1.204278622181321 0  5.102831660739063 0.03453404176596848 0  4.083259768981113 1.154272958349666 0  -3.992394834362243 -0.1621022234411988 0  0.4290302718942113 -1.225465289645401 0  -3.681487986394671 -1.310544246656267 0  -3.640289698916164 1.187023654838123 0  0.468851680921228 -0.447055967952278 0  3.315209904217932 0.05667935655546536 0  -2.541160649745046 -1.046980928586996 0  -1.45196684542695 1.044189935346116 0  -2.000844595891861 -1.207983108473125 0  -1.453092202970521 -1.061139264918894 0  -2.000050543938391 1.207806685704176 0  -2.548033154566413 1.04418993534851 0  4.13054585796652 -1.232871249381608 0  -0.3301617095463629 1.221692405319566 0  -0.2880491989587189 -1.359626628407983 0  -0.0758941643813178 0.132275811829787 0  2.826389221580753 -1.233168480096227 0  -2.922070412327736 0.7575752117792038 0  1.003070890178416 1.271347915034201 0  -5.319521816151902 -1.310543894393663 0  -1.070407062963812 0.7877698545098388 0  -4.562499863038985 -0.2302396981426722 0  -3.164226661545047 0.07179577787350272 0  -0.9091377812900333 0.132454654016971 0  4.116029045943655 -0.4851826871817362 0  5.316659189209927 -1.316659189208741 0  -0.9498828454673396 -0.4149758979014553 0  -4.037769805263969 0.6896174350675625 0  1.431664772855882 -1.327784137638992 0  -3.646693623568034 0.1600006358878044 0  -2.878371345483476 -0.7910345833001061 0  1.062603041385242 0.2894765870627741 0  -0.547955103783681 0.1635272504420374 0  -4.804809838419659 1.41016301576038 0  -3.042895319571192 -0.3694931303482478 0  -4.59252578392403 0.792267765362792 0  2.823271260730033 -0.5472430318427347 0  -4.28575390662405 -0.7521491832384866 0  -0.5524005545121191 -0.9037367558558163 0  1.815219025072439 1.388812135783969 0  -1.288398729718543 -0.8178399475601057 0  -5.424388493366639 1.35375165044146 0  -2.256991952837567 -1.049538527273222 0  -1.739586738723494 -1.052327527873255 0  -1.738827359988536 1.050180627239116 0  -2.257795730428802 1.049701225145305 0  -0.62222340523776 -0.5483611729237363 0  2.065188519029698 0.5424877383589943 0  0.1055865106318892 0.7347782870471022 0  1.013082573993895 -0.2061877611231605 0  -5.428323520618333 -0.4386412085227075 0  5.374041502384443 -0.5304401760993408 0  3.435185060219232 -1.377658617395091 0  -3.302377238490527 0.8841390072780534 0  -0.9902123298072768 -0.124175295282554 0  0.7186958547669859 0.8724503317343631 0  2.941237214953417 1.390391532351976 0  4.708037787864423 -1.340276032051348 0  5.395029680982659 1.395029680983341 0  3.591022587550188 1.348260650408605 0  2.759385971589342 0.4857447325740718 0  -0.6832705231418494 0.8879387563573758 0  5.437781298507145 0.5981501503262471 0  -2.698603003287285 1.617130043745112 0  -3.463358189947519 -1.013588318179017 0  1.710866040171871 -0.6978716337870808 0  3.642182982762737 0.4555704362064124 0  -2.699802128031161 -1.618310703146212 0  -1.3020054856637 1.619819977935582 0  -2.000000000004996 -1.566396763829867 0  -1.999999999994794 1.566396763830688 0  -1.247812462071684 -1.595232739507426 0  4.59429106759859 1.420052135572917 0  0.9448382581152466 -1.440259145469251 0  -0.116376100998861 -0.2606209011258676 0  -4.774521510507792 0.4245390872783272 0  -2.983910172370106 -0.1208000607277856 0  -3.353983741142061 1.576062863985777 0  -5.473352579109997 0.4917619255280954 0  -4.828650470275986 -1.493148538517745 0  4.639973657165532 -0.2833178611094909 0  -2.660279445404468 0.7699932347178977 0  -1.335045190775955 0.7744876666923373 0  -3.395669172689978 0.2584951122361346 0  2.279110606119369 -1.465899541383697 0  4.734317729212562 0.4520963557364723 0  -0.6334913028224612 1.584213953723378 0  2.121854101359879 -0.4289611127787379 0  -3.474459720833238 -0.4977581316675216 0  -1.066539898844178 0.3411379476537602 0  -3.361849707555382 -1.611428512420182 0  -4.099039818938317 0.3306400369415774 0  -2.935324777364672 0.354721898811665 0  -3.973578595052027 1.482940358734671 0  3.784450148635689 -0.0702780807301525 0  -1.191348122671212 -0.5614501189722798 0  -2.838672605956353 -0.5493179047027598 0  -1.184983441257359 0.5617520886612424 0  -2.811184099847449 0.5574240755049175 0  0.2702752249355158 -0.8003643570420809 0  -0.6945947797857237 -1.593893965175195 0  0.001175881878679056 1.504521009023778 0  0.6072931735145096 1.501814722697789 0  -3.991896293645949 -1.047264188412552 0  -3.734097395159253 -0.3261671578666079 0  -5.539652387691843 -0.8857154182585802 0  -4.395061924111849 1.563293728588296 0  0.2258327611651416 -0.08745142624872881 0  -3.774816634825771 0.8676973328379478 0  2.208484493569073 1.6256686312487 0  0.1309939514660535 -1.566169703482512 0  -5.551414360955331 0.9459842275970113 0  -4.04734138658365 -1.51163984963472 0  -4.947145019546805 -0.3299925153029702 0  4.320410447198621 0.6970857582435144 0  -4.707557346727139 -1.000565649857444 0  1.353711468973986 1.582551234446199 0  1.674156483558973 0.3266252271732694 0  -4.039105552973997 -0.4537604746027087 0  0.01051727619263377 -1.088858357362194 0  -0.2234942609176301 0.8619127912343982 0  -2.95903482691863 0.1219373374385197 0  -4.682467695920681 0.0804575682243254 0  5.535750224195656 -0.1525732643419722 0  -4.290083947414376 -0.0005258314026840717 0  1.136102562417988 0.7655312464039168 0  -2.816589394567214 0.9927597419785312 0  -2.645374456162409 -0.7645902451387543 0  4.18414576655837 1.624276131878667 0  0.7127337088822223 -0.9006358935856398 0  1.972418102153911 0.9727040774616764 0  -2.42199174813501 0.8591219219254587 0  -2.418604734200992 -0.8552987735117754 0  -5.573597213364169 -0.03612430678117123 0  2.024792870869397 0.05574071630590883 0  -1.578875191508968 0.861424470724936 0  -1.54706008231699 -0.8630049102346303 0  3.848662181064435 -1.569601980075533 0  -2.000000000003871 -0.9746445732264465 0  -1.99999999
[...]
<PointData  Vectors="f_22"> 
<DataArray  type="Float64"  Name="f_22"  NumberOfComponents="3" format="ascii">0.0000000000000000e+00 0.0000000000000000e+00 0.0000000000000000e+00  0.0000000000000000e+00 0.0000000000000000e+00 0.0000000000000000e+00  0.0000000000000000e+00 0.0000000000000000e+00 0.0000000000000000e+00  0.0000000000000000e+00 0.0000000000000000e+00 0.0000000000000000e+00  9.9999995785802043e-01 0.0000000000000000e+00 0.0000000000000000e+00  9.9999995785802043e-01 0.0000000000000000e+00 0.0000000000000000e+00  0.0000000000000000e+00 0.0000000000000000e+00 0.0000000000000000e+00  0.0000000000000000e+00 0.0000000000000000e+00 0.0000000000000000e+00  0.0000000000000000e+00 0.0000000000000000e+00 0.0000000000000000e+00  0.0000000000000000e+00 0.0000000000000000e+00 0.0000000000000000e+00  0.0000000000000000e+00 0.0000000000000000e+00 0.0000000000000000e+00  0.0000000000000000e+00 0.0000000000000000e+00 0.0000000000000000e+00  0.0000000000000000e+00 0.0000000000000000e+00 0.0000000000000000e+00  0.0000000000000000e+00 0.0000000000000000e+00 0.0000000000000000e+00  0.0000000000000000e+00 0.0000000000000000e+00 0.0000000000000000e+00  0.0000000000000000e+00 0.0000000000000000e+00 0.0000000000000000e+00  0.0000000000000000e+00 0.0000000000000000e+00 0.0000000000000000e+00  0.0000000000000000e+00 0.0000000000000000e+00 0.0000000000000000e+00  0.0000000000000000e+00 0.0000000000000000e+00 0.0000000000000000e+00  0.0000000000000000e+00 0.0000000000000000e+00 0.0000000000000000e+00  0.0000000000000000e+00 0.0000000000000000e+00 0.0000000000000000e+00  0.0000000000000000e+00 0.0000000000000000e+00 0.0000000000000000e+00  0.0000000000000000e+00 0.0000000000000000e+00 0.0000000000000000e+00  0.0000000000000000e+00 0.0000000000000000e+00 0.0000000000000000e+00  0.0000000000000000e+00 0.0000000000000000e+00 0.0000000000000000e+00  0.0000000000000000e+00 0.0000000000000000e+00 0.0000000000000000e+00  0.0000000000000000e+00 0.0000000000000000e+00 0.0000000000000000e+00  0.0000000000000000e+00 0.0000000000000000e+00 0.0000000000000000e+00  0.0000000000000000e+00 0.0000000000000000e+00 0.0000000000000000e+00  3.3636491951740582e-01 -3.6781142921305497e-04 0.0000000000000000e+00  5.8287794045419627e-01 -6.9159179414449677e-04 0.0000000000000000e+00  7.2958635121359894e-01 -6.0606667756036431e-04 0.0000000000000000e+00  7.7793917768217880e-01 -2.6873162338155070e-05 0.0000000000000000e+00  7.2954453784645545e-01 5.5493718166317032e-04 0.0000000000000000e+00  5.8275465230107659e-01 6.9854306583533353e-04 0.0000000000000000e+00  3.3620363467533265e-01 3.4174238736927405e-04 0.0000000000000000e+00  0.0000000000000000e+00 0.0000000000000000e+00 0.0000000000000000e+00  0.0000000000000000e+00 0.0000000000000000e+00 0.0000000000000000e+00  0.0000000000000000e+00 0.0000000000000000e+00 0.0000000000000000e+00  0.0000000000000000e+00 0.0000000000000000e+00 0.0000000000000000e+00  0.0000000000000000e+00 0.0000000000000000e+00 0.0000000000000000e+00  0.0000000000000000e+00 0.0000000000000000e+00 0.0000000000000000e+00  0.0000000000000000e+00 0.0000000000000000e+00 0.0000000000000000e+00  0.0000000000000000e+00 0.0000000000000000e+00 0.0000000000000000e+00  0.0000000000000000e+00 0.0000000000000000e+00 0.0000000000000000e+00  0.0000000000000000e+00 0.0000000000000000e+00 0.0000000000000000e+00  0.0000000000000000e+00 0.0000000000000000e+00 0.0000000000000000e+00  0.0000000000000000e+00 0.0000000000000000e+00 0.0000000000000000e+00  0.0000000000000000e+00 0.0000000000000000e+00 0.0000000000000000e+00  0.0000000000000000e+00 0.0000000000000000e+00 0.0000000000000000e+00  0.0000000000000000e+00 0.0000000000000000e+00 0.0000000000000000e+00  0.0000000000000000e+00 0.0000000000000000e+00 0.0000000000000000e+00  0.0000000000000000e+00 0.0000000000000000e+00 0.0000000000000000e+00  0.0000000000000000e+00 0.0000000000000000e+00 0.0000000000000000e+00  0.0000000000000000e+00 0.0000000000000000e+00 0.0000000000000000e+00  0.0000000000000000e+00 0.0000000000000000e+00 0.0000000000000000e+00  0.0000000000000000e+00 0.0000000000000000e+00 0.0000000000000000e+00  0.0000000000000000e+00 0.0000000000000000e+00 0.0000000000000000e+00  0.0000000000000000e+00 0.0000000000000000e+00 0.0000000000000000e+00  3.3508368851373577e-01 -6.2081076082930794e-04 0.0000000000000000e+00  5.8220864821166174e-01 -1.0711756242853640e-03 0.0000000000000000e+00  7.3038139555782877e-01 -8.5989506533001490e-04 0.0000000000000000e+00  7.7976832066131496e-01 -1.2678835786485542e-05 0.0000000000000000e+00  7.3104181120698852e-01 9.7747516410280622e-04 0.0000000000000000e+00  5.8249445333383731e-01 1.1367492903753562e-03 0.0000000000000000e+00  3.3518469973003945e-01 6.6169415394358477e-04 0.0000000000000000e+00  9.9999995785802043e-01 0.0000000000000000e+00 0.0000000000000000e+00  9.9999995785802043e-01 0.0000000000000000e+00 0.0000000000000000e+00  9.9999995785802043e-01 0.0000000000000000e+00 0.0000000000000000e+00  9.9999995785802043e-01 0.0000000000000000e+00 0.0000000000000000e+00  9.9999995785802043e-01 0.0000000000000000e+00 0.0000000000000000e+00  9.9999995785802043e-01 0.0000000000000000e+00 0.0000000000000000e+00  9.9999995785802043e-01 0.0000000000000000e+00 0.0000000000000000e+00  9.9999995785802043e-01 0.0000000000000000e+00 0.0000000000000000e+00  9.9999995785802043e-01 0.0000000000000000e+00 0.0000000000000000e+00  9.9999995785802043e-01 0.0000000000000000e+00 0.0000000000000000e+00  9.9999995785802043e-01 0.0000000000000000e+00 0.0000000000000000e+00  9.9999995785802043e-01 0.0000000000000000e+00 0.0000000000000000e+00  9.9999995785802043e-01 0.0000000000000000e+00 0.0000000000000000e+00  9.9999995785802043e-01 0.0000000000000000e+00 0.0000000000000000e+00  9.9999995785802043e-01 0.0000000000000000e+00 0.0000000000000000e+00  9.9999995785802043e-01 0.0000000000000000e+00 0.0000000000000000e+00  9.9999995785802043e-01 0.0000000000000000e+00 0.0000000000000000e+00  9.9999995785802043e-01 0.0000000000000000e+00 0.0000000000000000e+00  9.9999995785802043e-01 0.0000000000000000e+00 0.0000000000000000e+00  9.9999995785802043e-01 0.0000000000000000e+00 0.0000000000000000e+00  9.9999995785802043e-01 0.0000000000000000e+00 0.0000000000000000e+00  9.9999995785802043e-01 0.0000000000000000e+00 0.0000000000000000e+00  9.9999995785802043e-01 0.0000000000000000e+00 0.0000000000000000e+00  9.9999995785802043e-01 0.0000000000000000e+00 0.0000000000000000e+00  8.4876988386758734e-01 1.7916440183736945e-02 0.0000000000000000e+00  7.7478626201667267e-01 -6.0816201474276884e-03 0.0000000000000000e+00  6.9800775009015414e-01 3.6062930720964455e-02 0.0000000000000000e+00  7.4127147564633200e-01 -5.9599518450861193e-02 0.0000000000000000e+00  7.9864309377476139e-01 1.8421911656617241e-05 0.0000000000000000e+00  7.3538904275844952e-01 -5.2667912519413364e-02 0.0000000000000000e+00  7.6619411181880048e-01 1.1586227642318304e-03 0.0000000000000000e+00  7.9749636919304123e-01 6.6794796709096230e-02 0.0000000000000000e+00  4.2300654931324000e-01 -1.0300915977709547e-01 0.0000000000000000e+00  4.0682062965042759e-01 1.0473074122991508e-01 0.0000000000000000e+00  6.6564713414911603e-01 -2.5579992190670770e-02 0.0000000000000000e+00  6.8102829860226033e-01 4.7852563473387523e-03 0.0000000000000000e+00  4.0853310836804119e-01 1.0241321965076376e-01 0.0000000000000000e+00  2.9186306136127349e-01 -9.1862413346348246e-02 0.0000000000000000e+00  8.4111812488393745e-01 2.8518814979996272e-02 0.0000000000000000e+00  9.5566559876166202e-01 -1.7444715556581728e-02 0.0000000000000000e+00  6.7241700940591176e-01 1.6945360146454522e-02 0.0000000000000000e+00  6.4564512168908594e-01 -3.6975176430715418e-03 0.0000000000000000e+00  6.4829062868182630e-01 -1.3669674458072940e-03 0.0000000000000000e+00  6.3328832185157313e-01 4.4315977364863465e-03 0.0000000000000000e+00  4.7129605039709671e-01 -1.3256562839252091e-02 0.0000000000000000e+00  1.5907640484393420e-01 1.0785369491858487e-01 0.0000000000000000e+00  1.1265481298203167e-01 2.8148451432169205e-02 0.0000000000000000e+00  1.1047150823266798e-01 -2.6958554396256752e-02 0.0000000000000000e+00  1.5815091053760416e-01 -1.0761145503843694e-01 0.0000000000000000e+00  6.4216238484330201e-01 -3.2357599560620173e-03 0.0000000000000000e+00  5.9376573021339696e-01 -1.1087239885813819e-02 0.0000000000000000e+00  5.9753300618103711e-01 1.1525113148033908e-03 0.0000000000000000e+00  4.6496472638800090e-01 4.1559883694019119e-02 0.0000000000000000e+00  7.8027867283611640e-01 -4.4505925354443022e-04 0.0000000000000000e+00  7.4122350910215518e-01 1.1318716862062143e-01 0.0000000000000000e+00  8.2692853852081061e-01 -9.2417250107230328e-02 0.0000000000000000e+00  9.3900800013960828e-01 3.8922579498130196e-02 0.0000000000000000e+00  8.0231588217500283e-01 -8.3812064936348740e-02 0.0000000000000000e+00  4.7047230521919464e-01 1.0604835640374073e-02 0.0000000000000000e+00  8.1852896803823949e-01 -2.2267034630888334e-03 0.0000000000000000e+00  4.8178891086513043e-01 6.4920206450870830e-03 0.0000000000000000e+00  7.7916828284286654e-01 5.4661287954437053e-05 0.0000000000000000e+00  5.1462083743007481e-01 1.7756443244434637e-03 0.0000000000000000e+00  8.0034717354363361e-01 8.3146200637885075e-03 0.0000000000000000e+00  4.2412401715210862e-01 -3.4803942317113735e-02 0.0000000000000000e+00  4.0878726581732827e-01 2.9809084850403931e-02 0.0000000000000000e+00  4.7299508350157154e-01 -3.8486059231088901e-02 0.0000000000000000e+00  8.0422617724143242e-01 -2.7941688893884643e-02 0.0000000000000000e+00  7.8724227200221542e-01 4.9261049805038749e-04 0.0000000000000000e+00  4.1830890652476860e-01 1.8413657270560188e-01 0.0000000000000000e+00  4.7870360656425009e-01 9.1207032471145352e-02 0.0000000000000000e+00  2.2311852309654512e-01 5.5571049954392243e-02 0.0000000000000000e+00  4.5628039476627075e-01 -9.0226545094149166e-02 0.0000000000000000e+00  2.2324326431499072e-01 -5.5311378621688050e-02 0.0000000000000000e+00  4.2207528396675120e-01 -1.8437052914747509e-01 0.0000000000000000e+00  4.7726835342299162e-01 -1.5432772382340172e-03 0.0000000000000000e+00  3.8214988110195836e-01 6.7955506600496970e-02 0.0000000000000000e+00  2.9264532851839203e-01 -5.3379800179220373e-02 0.0000000000000000e+00  9.1109100277241595e-01 1.2470416197621112e-02 0.0000000000000000e+00  4.7115206365338003e-01 -4.3497634338484567e-03 0.0000000000000000e+00  6.7741511583352565e-01 -1.6491156830711098e-01 0.0000000000000000e+00  4.2028527614791616e-01 1.9853895481598872e-02 0.0000000000000000e+00  4.3877871148315045e-01 1.5901234879944857e-03 0.0000000000000000e+00  7.5637126544254407e-01 9.2562993800520396e-02 0.0000000000000000e+00  7.7737287678504274e-01 4.0120014754912777e-03 0.0000000000000000e+00  9.0564391209505890e-01 -1.6932271124338510e-02 0.0000000000000000e+00  9.9047596476222266e-01 7.3002568338654738e-03 0.0000000000000000e+00  7.3493270505810437e-01 -1.9241425012045002e-03 0.0000000000000000e+00  4.3714640470894583e-01 -5.7215679735621717e-04 0.0000000000000000e+00  9.5437346588404226e-01 -3.3043637267645427e-02 0.0000000000000000e+00  6.9273093631688110e-01 -2.3648294684505911e-02 0.0000000000000000e+00  4.0219790525930676e-01 -1.2227261167936898e-02 0.0000000000000000e+00  8.2433564834552298e-01 -1.5298673501114173e-02 0.0000000000000000e+00  6.5418099722900092e-01 1.7363631798687285e-01 0.0000000000000000e+00  8.1452043815469466e-01 1.3153553788785313e-02 0.0000000000000000e+00  9.5575421766169788e-01 1.6408182174772707e-02 0.0000000000000000e+00  3.8238227604237585e-01 -3.3445222218345234e-03 0.0000000000000000e+00  8.6977078240661276e-01 9.6621768522483165e-02 0.0000000000000000e+00  6.5689752168449767e-01 -8.9286721470520150e-03 0.0000000000000000e+00  7.2644397844514952e-01 -5.5871347121875525e-03 0.0000000000000000e+00  6.7103468890453688e-01 1.5588183471025663e-02 0.0000000000000000e+00  6.1523845468531224e-01 -9.0364145008632338e-02 0.0000000000000000e+00  3.7748404428059656e-01 7.5631924789333806e-03 0.0000000000000000e+00  7.6227758929014666e-01 -8.8065433517744873e-02 0.0000000000000000e+00  4.1614404176188297e-01 -1.2184702306845426e-03 0.0000000000000000e+00  3.9194275322690114e-01 1.3650986630795023e-01 0.0000000000000000e+00  4.4528044930109095e-01 -3.7347851441737676e-02 0.0000000000000000e+00  4.4865886786628734e-01 3.7754911538970211e-02 0.0000000000000000e+00  3.9165098191524161e-01 -1.3676125685558022e-01 0.0000000000000000e+00  8.5383128391244545e-01 -6.2423691328945444e-02 0.0000000000000000e+00  7.3355250054574450e-01 1.0254931705371369e-02 0.0000000000000000e+00  7.0155866299000402e-01 5.1874741480685195e-02 0.0000000000000000e+00  8.2953524349363295e-01 -9.9222951234688786e-03 0.0000000000000000e+00  7.4282965362540287e-01 1.3366800909930564e-03 0.0000000000000000e+00  7.2391584505993178e-01 -8.4455682556271497e-04 0.0000000000000000e+00  3.9960242088385950e-01 -1.9245195650044046e-03 0.0000000000000000e+00  6.1404659382551108e-01 -8.8596599544751575e-02 0.0000000000000000e+00  9.9510444423630884e-01 -4.6168888056078942e-03 0.0000000000000000e+00  6.2237021710886109e-01 3.3835506537334283e-02 0.0000000000000000e+00  3.9005036479163802e-01 2.8211127967518127e-03 0.0000000000000000e+00  4.2357848031014877e-01 -7.9057833216465332e-04 0.0000000000000000e+00  3.9516121363144641e-01 4.7052382329905830e-04 0.0000000000000000e+00  4.1644117242701723e-01 1.8509588648120230e-03 0.0000000000000000e+00  7.4085631816844233e-01 5.5426838803268605e-03 0.0000000000000000e+00  6.3253754268542417e-01 9.6733307437784230e-02 0.0000000000000000e+00  7.0890698530034058e-01 8.2290430188634986e-04 0.0000000000000000e+00  1.1390730376779298e-01 -4.5902105297328480e-02 0.0000000000000000e+00  5.5377675305010376e-01 6.2993322445731484e-02 0.0000000000000000e+00  6.9002240131358039e-01 -1.5310651686052522e-02 0.0000000000000000e+00  7.4213900479800499e-01 2.6374423631142048e-03 0.0000000000000000e+00  1.1365781783208971e-01 4.5617410278294586e-02 0.0000000000000000e+00  3.4185502563407241e-03 2.9998195780638299e-02 0.0000000000000000e+00  -3.3945599806894651e-03 3.1179462356210622e-02 0.0000000000000000e+00  -3.4553746407857736e-03 -3.1144719722326301e-02 0.0000000000000000e+00  2.1075596569916914e-02 -3.5319422286275208e-02 0.0000000000000000e+00  3.8015530787361401e-01 6.8161853174772066e-04 0.0000000000000000e+00  3.2490751067228352e-01 -1.4385356813359899e-02 0.0000000000000000e+00  8.9533974086129620e-01 -2.4845216801967693e-02 0.0000000000000000e+00  7.4822900302762985e-01 -4.5946878393635726e-03 0.0000000000000000e+00  9.4736705517349218e-01 3.5111332183976551e-02 0.0000000000000000e+00  2.3333353510790511e-01 -2.4293714354693425e-02 0.0000000000000000e+00  7.3264093522914553e-01 -1.2413292956843147e-03 0.0000000000000000e+00  3.3492272532883444e-01 2.6492770641853842e-03 0.0000000000000000e+00  7.6469853743658134e-01 -8.6412891476880132e-04 0.0000000000000000e+00  6.7599248311844962e-01 -1.9479516177430528e-01 0.0000000000000000e+00  8.1959203047183826e-01 7.5066038661879303e-02 0.0000000000000000e+00  8.3852559657957493e-01 -3.8564103607101427e-02 0.0000000000000000e+00  3.4096405530772261e-01 -3.9938306043233625e-03 0.0000000000000000e+00  7.3985971872663470e-01 1.1399712213944300e-03 0.0000000000000000e+00  1.1864763129148544e-01 3.6986384872067263e-02 0.0000000000000000e+00  7.5963073014515192e-01 -8.4230780879986401e-03 0.0000000000000000e+00  7.7122211110959349e-01 5.6180756051849662e-02 0.0000000000000000e+00  9.8404270855663289e-01 1.5574578320885699e-02 0.0000000000000000e+00  2.1463433424630429e-01 2.0562609827972700e-02 0.0000000000000000e+00  7.7587200340434337e-01 -1.2980584888719638e-02 0.0000000000000000e+00  9.0021414044399539e-01 -1.0225924222280265e-01 0.0000000000000000e+00  3.2551587296410728e-01 -1.2116791344275195e-02 0.0000000000000000e+00  7.8348291364291800e-01 -4.4190256348314110e-04 0.0000000000000000e+00  9.4441945925241355e-01 -3.8176387152540535e-02 0.0000000000000000e+00  8.2170472083898383e-01 1.5539084687145979e-01 0.0000000000000000e+00  9.4288773630023570e-01 3.9122528300506602e-02 0.0000000000000000e+00  8.2301558734076752e-01 -1.5878034785823530e-01 0.0000000000000000e+00  6.6278887689611821e-01 -4.7195000198119265e-02 0.0000000000000000e+00  1.0461896193045737e-01 -3.7258396436602198e-02 0.0000000000000000e+00  2.3327258935104159e-01 2.9322451676647578e-02 0.0000000000000000e+00  2.7552491966195247e-01 1.6686000253080518e-02 0.0000000000000000e+00  5.5378509323572866e-01 2.4317962308594149e-02 0.0000000000000000e+00  7.9441078640424700e-01 2.5331208955344589e-02 0.0000000000000000e+00  6.2526608051854626e-01 1.5783337460354883e-03 0.0000000000000000e+00  2.8847921336855614e-01 -4.3916182221442534e-03 0.0000000000000000e+00  8.8906407800830911e-01 -6.8628032752056202e-03 0.0000000000000000e+00  6.2887777697032010e-01 -3.9108073091804856e-02 0.0000000000000000e+00  2.4718541260182661e-01 2.2977453676323260e-03 0.0000000000000000e+00  2.0950971168677604e-01 -2.0910258102201200e-02 0.0000000000000000e+00  6.0301226747465220e-01 -1.5045121299054913e-03 0.0000000000000000e+00  3.1141447201558747e-01 9.7346082192208468e-03 0.0000000000000000e+00  7.6163369971417494e-01 2.6760515185125593e-03 0.0000000000000000e+00  6.8427285456169484e-01 1.9119588424411087e-03 0.0000000000000000e+00  5.8062706787894180e-01 7.0440997398192352e-03 0.0000000000000000e+00  2.5755162905715839e-01 6.2439215783495691e-03 0.0000000000000000e+00  7.8787914488311617e-01 9.5444742399405195e-03 0.0000000000000000e+00  7.5550085995234384e-01 1.8802927872925989e-02 0.0000000000000000e+00  4.9077922735652607e-01 -5.7164551073444252e-02 0.0000000000000000e+00  6.3637790339904676e-01 7.1579869224950743e-02 0.0000000000000000e+00  9.5476008664444678e-01 -3.5917571797625822e-02 0.0000000000000000e+00  7.8510475042842787e-01 -1.0157366196649374e-03 0.0000000000000000e+00  7.7401749871086412e-01 -2.8571418808504212e-04 0.0000000000000000e+00  7.9487534675645621e-01 2.9838805236398076e-05 0.0000000000000000e+00  6.6844774494161308e-01 2.4372484325269183e-02 0.0000000000000000e+00  5.0663148033823491e-01 -1.6774857435219689e-01 0.0000000000000000e+00  6.8308544889685596e-01 1.9292333849301552e-01 0.0000000000000000e+00  2.5882673808735940e-01 4.5440762888298832e-04 0.0000000000000000e+00  6.0852642052031491e-01 -3.4081484297606858e-02 0.0000000000000000e+00  5.8410332923870156e-01 1.1946511152743573e-02 0.0000000000000000e+00  6.2140095856819422e-01 -1.6366074345980977e-01 0.0000000000000000e+00  6.2806367200472213e-01 1.6093895457915200e-01 0.0000000000000000e+00  7.7994791336148284e-01 6.3921036344346911e-05 0.0000000000000000e+00  8.0648429690150536e-01 1.3390035351415442e-03 0.0000000000000000e+00  7.5885800895393096e-01 6.4589096046174993e-02 0.0000000000000000e+00  7.5034588494484467e-01 -6.9473706211559696e-02 0.0000000000000000e+00  2.9119412828961899e-01 -7.5800378324039207e-04 0.0000000000000000e+00  5.4258096188892857e-01 3.3576818489263742e-02 0.0000000000000000e+00  5.4255697960222549e-01 -3.3598561098345824e-02 0.0000000000000000e+00  3.0270836859691597e-01 -1.2048465817822113e-01 0.0000000000000000e+00  6.0444936369569779e-01 3.1069213323853188e-03 0.0000000000000000e+00  5.4059356874647457e-01 1.0849181925614487e-01 0.0000000000000000e+00  8.6063657108531899e-01 -2.2820466611274339e-03 0.0000000000000000e+00  5.8786375066278473e-01 7.8727592263362872e-04 0.0000000000000000e+00  6.0870747469516051e-01 -8.2541479439960286e-04 0.0000000000000000e+00  5.8653513120414680e-01 5.8347820216809697e-03 0.0000000000000000e+00  2.2749674297941405e-01 8.2680955765210840e-02 0.0000000000000000e+00  5.0558437757750396e-01 -1.0992335723895741e-01 0.0000000000000000e+00  6.3013647018180841e-01 -7.8807913545361225e-03 0.0000000000000000e+00  6.3834326350625903e-01 -1.8720131596954694e-03 0.0000000000000000e+00  2.5987201419586248e-01 -4.6624877459494054e-04 0.0000000000000000e+00  2.5018539367178189e-01 -3.7797937772793841e-03 0.0000000000000000e+00  8.1290627437969920e-01 -3.7558431566336391e-02 