<?xml version="1.0"?>
<VTKFile type="UnstructuredGrid"  version="0.1"  >
<UnstructuredGrid>
<Piece  NumberOfPoints="406" NumberOfCells="722">
<Points>
<DataArray  type="Float64"  NumberOfComponents="3"  format="ascii">-6 -2 0  -6 2 0  6 2 0  6 -2 0  -2.8 0 0  -1.2 0 0  -5.500000000001853 -2 0  -5.000000000003705 -2 0  -4.500000000005556 -2 0  -4.000000000007409 -2 0  -3.50000000000926 -2 0  -3.000000000011112 -2 0  -2.500000000012963 -2 0  -2.000000000014814 -2 0  -1.500000000016665 -2 0  -1.000000000018516 -2 0  -0.5000000000203677 -2 0  -2.204547655537681e-11 -2 0  0.4999999999796305 -2 0  0.9999999999814779 -2 0  1.499999999983327 -2 0  1.999999999985175 -2 0  2.499999999987029 -2 0  2.999999999988882 -2 0  3.499999999990735 -2 0  3.999999999992589 -2 0  4.49999999999444 -2 0  4.999999999996293 -2 0  5.499999999998147 -2 0  6 -1.500000000001387 0  6 -1.000000000002774 0  6 -0.5000000000041616 0  6 -5.505595979116151e-12 0  6 0.4999999999958384 0  6 0.9999999999972258 0  6 1.499999999998613 0  5.500000000001853 2 0  5.000000000003705 2 0  4.500000000005556 2 0  4.000000000007409 2 0  3.50000000000926 2 0  3.000000000011112 2 0  2.500000000012963 2 0  2.000000000014814 2 0  1.500000000016665 2 0  1.000000000018516 2 0  0.5000000000203677 2 0  2.204547655537681e-11 2 0  -0.4999999999796305 2 0  -0.9999999999814779 2 0  -1.499999999983327 2 0  -1.999999999985175 2 0  -2.499999999987029 2 0  -2.999999999988882 2 0  -3.499999999990735 2 0  -3.999999999992589 2 0  -4.49999999999444 2 0  -4.999999999996293 2 0  -5.499999999998147 2 0  -6 1.500000000001387 0  -6 1.000000000002774 0  -6 0.5000000000041616 0  -6 5.505595979116151e-12 0  -6 -0.4999999999958384 0  -6 -0.9999999999972258 0  -6 -1.499999999998613 0  -2.776753453941174 -0.1914525314286965 0  -2.708364820523325 -0.3717785376335722 0  -2.598808598538216 -0.5304981265911284 0  -2.454451797386757 -0.65838709271366 0  -2.283683909636528 -0.748012994147384 0  -2.096429344207466 -0.7941670992780535 0  -1.903570655798842 -0.7941670992788195 0  -1.716316090368095 -0.7480129941491368 0  -1.545548202616307 -0.6583870927157747 0  -1.401191401463757 -0.530498126593356 0  -1.291635179477527 -0.371778537635196 0  -1.223246546059047 -0.1914525314295925 0  -1.223246546058803 0.1914525314286035 0  -1.291635179476594 0.3717785376334188 0  -1.401191401461634 0.5304981265909601 0  -1.545548202612898 0.6583870927134221 0  -1.716316090363093 0.7480129941472402 0  -1.903570655792394 0.7941670992780367 0  -2.096429344201276 0.7941670992788055 0  -2.283683909631911 0.7480129941491347 0  -2.454451797383697 0.6583870927157729 0  -2.598808598536385 0.530498126593196 0  -2.70836482052258 0.3717785376349917 0  -2.776753453940975 0.1914525314295042 0  0.4588466633941945 0.2704149791022056 0  -4.424312812173863 0.2760319703992994 0  -3.803977598762586 -0.6841584599595646 0  -0.1330968762779425 -0.6798763971615133 0  2.451109587541276 3.169800318630399e-13 0  -3.563610936250569 0.5929994091167295 0  4.204753319582647 0.2820669554523581 0  -0.4390897559348154 0.6178095532273566 0  -3.041446812595122 1.175550440315544 0  -0.9622132806516797 1.132103015222783 0  1.069493318942931 -0.773608156980569 0  -4.924330687080279 -0.7127064269610045 0  -3.024693497948964 -1.195179289656404 0  -0.9648749555625579 -1.256854520022574 0  -3.443624282349383 -0.2044158249759613 0  -0.5611500783757608 -0.1747080110423833 0  1.60270880116926 0.7487034276124258 0  3.488352576142236 -0.8228939860777884 0  4.816375011670135 -0.8163750116689444 0  3.243628045085357 0.8578172796997985 0  -4.228632884234073 1.228069101636678 0  -2.365220384435482 -1.356128547810356 0  -1.637465979486354 1.3571687267915 0  -1.642380978561139 -1.359365080147485 0  -2.362988915989869 1.356737096243695 0  -5.134120367293631 0.8356299802910161 0  2.077496878467794 -0.9514080034522553 0  4.960859291178299 0.9608592911785537 0  0.3293120056474302 1.148965409695154 0  -5.157560560414062 0.09447106214747865 0  -3.14779387667392 -0.6330563038825547 0  -3.148134455585257 0.4354299640428653 0  -0.8464439673630421 0.4159277415926296 0  -0.9918125625721008 -0.7191748422889824 0  -4.355349213295776 -1.234510499778242 0  1.582074659164868 -0.06850205959954866 0  2.400584045214166 1.204278622181321 0  5.102831660739063 0.03453404176596848 0  4.083259768981113 1.154272958349666 0  -3.992394834362243 -0.1621022234411988 0  0.4290302718942113 -1.225465289645401 0  -3.681487986394671 -1.310544246656267 0  -3.640289698916164 1.187023654838123 0  0.468851680921228 -0.447055967952278 0  3.315209904217932 0.05667935655546536 0  -2.541160649745046 -1.046980928586996 0  -1.45196684542695 1.044189935346116 0  -2.000844595891861 -1.207983108473125 0  -1.453092202970521 -1.061139264918894 0  -2.000050543938391 1.207806685704176 0  -2.548033154566413 1.04418993534851 0  4.13054585796652 -1.232871249381608 0  -0.3301617095463629 1.221692405319566 0  -0.2880491989587189 -1.359626628407983 0  -0.0758941643813178 0.132275811829787 0  2.826389221580753 -1.233168480096227 0  -2.922070412327736 0.7575752117792038 0  1.003070890178416 1.271347915034201 0  -5.319521816151902 -1.310543894393663 0  -1.070407062963812 0.7877698545098388 0  -4.562499863038985 -0.2302396981426722 0  -3.164226661545047 0.07179577787350272 0  -0.9091377812900333 0.132454654016971 0  4.116029045943655 -0.4851826871817362 0  5.316659189209927 -1.316659189208741 0  -0.9498828454673396 -0.4149758979014553 0  -4.037769805263969 0.6896174350675625 0  1.431664772855882 -1.327784137638992 0  -3.646693623568034 0.1600006358878044 0  -2.878371345483476 -0.7910345833001061 0  1.062603041385242 0.2894765870627741 0  -0.547955103783681 0.1635272504420374 0  -4.804809838419659 1.41016301576038 0  -3.042895319571192 -0.3694931303482478 0  -4.59252578392403 0.792267765362792 0  2.823271260730033 -0.5472430318427347 0  -4.28575390662405 -0.7521491832384866 0  -0.5524005545121191 -0.9037367558558163 0  1.815219025072439 1.388812135783969 0  -1.288398729718543 -0.8178399475601057 0  -5.424388493366639 1.35375165044146 0  -2.256991952837567 -1.049538527273222 0  -1.739586738723494 -1.052327527873255 0  -1.738827359988536 1.050180627239116 0  -2.257795730428802 1.049701225145305 0  -0.62222340523776 -0.5483611729237363 0  2.065188519029698 0.5424877383589943 0  0.1055865106318892 0.7347782870471022 0  1.013082573993895 -0.2061877611231605 0  -5.428323520618333 -0.4386412085227075 0  5.374041502384443 -0.5304401760993408 0  3.435185060219232 -1.377658617395091 0  -3.302377238490527 0.8841390072780534 0  -0.9902123298072768 -0.124175295282554 0  0.7186958547669859 0.8724503317343631 0  2.941237214953417 1.390391532351976 0  4.708037787864423 -1.340276032051348 0  5.395029680982659 1.395029680983341 0  3.591022587550188 1.348260650408605 0  2.759385971589342 0.4857447325740718 0  -0.6832705231418494 0.8879387563573758 0  5.437781298507145 0.5981501503262471 0  -2.698603003287285 1.617130043745112 0  -3.463358189947519 -1.013588318179017 0  1.710866040171871 -0.6978716337870808 0  3.642182982762737 0.4555704362064124 0  -2.699802128031161 -1.618310703146212 0  -1.3020054856637 1.619819977935582 0  -2.000000000004996 -1.566396763829867 0  -1.999999999994794 1.566396763830688 0  -1.247812462071684 -1.595232739507426 0  4.59429106759859 1.420052135572917 0  0.9448382581152466 -1.440259145469251 0  -0.116376100998861 -0.2606209011258676 0  -4.774521510507792 0.4245390872783272 0  -2.983910172370106 -0.1208000607277856 0  -3.353983741142061 1.576062863985777 0  -5.473352579109997 0.4917619255280954 0  -4.828650470275986 -1.493148538517745 0  4.639973657165532 -0.2833178611094909 0  -2.660279445404468 0.7699932347178977 0  -1.335045190775955 0.7744876666923373 0  -3.395669172689978 0.2584951122361346 0  2.279110606119369 -1.465899541383697 0  4.734317729212562 0.4520963557364723 0  -0.6334913028224612 1.584213953723378 0  2.121854101359879 -0.4289611127787379 0  -3.474459720833238 -0.4977581316675216 0  -1.066539898844178 0.3411379476537602 0  -3.361849707555382 -1.611428512420182 0  -4.099039818938317 0.3306400369415774 0  -2.935324777364672 0.354721898811665 0  -3.973578595052027 1.482940358734671 0  3.784450148635689 -0.0702780807301525 0  -1.191348122671212 -0.5614501189722798 0  -2.838672605956353 -0.5493179047027598 0  -1.184983441257359 0.5617520886612424 0  -2.811184099847449 0.5574240755049175 0  0.2702752249355158 -0.8003643570420809 0  -0.6945947797857237 -1.593893965175195 0  0.001175881878679056 1.504521009023778 0  0.6072931735145096 1.501814722697789 0  -3.991896293645949 -1.047264188412552 0  -3.734097395159253 -0.3261671578666079 0  -5.539652387691843 -0.8857154182585802 0  -4.395061924111849 1.563293728588296 0  0.2258327611651416 -0.08745142624872881 0  -3.774816634825771 0.8676973328379478 0  2.208484493569073 1.6256686312487 0  0.1309939514660535 -1.566169703482512 0  -5.551414360955331 0.9459842275970113 0  -4.04734138658365 -1.51163984963472 0  -4.947145019546805 -0.3299925153029702 0  4.320410447198621 0.6970857582435144 0  -4.707557346727139 -1.000565649857444 0  1.353711468973986 1.582551234446199 0  1.674156483558973 0.3266252271732694 0  -4.039105552973997 -0.4537604746027087 0  0.01051727619263377 -1.088858357362194 0  -0.2234942609176301 0.8619127912343982 0  -2.95903482691863 0.1219373374385197 0  -4.682467695920681 0.0804575682243254 0  5.535750224195656 -0.1525732643419722 0  -4.290083947414376 -0.0005258314026840717 0  1.136102562417988 0.7655312464039168 0  -2.816589394567214 0.9927597419785312 0  -2.645374456162409 -0.7645902451387543 0  4.18414576655837 1.624276131878667 0  0.7127337088822223 -0.9006358935856398 0  1.972418102153911 0.9727040774616764 0  -2.42199174813501 0.8591219219254587 0  -2.418604734200992 -0.8552987735117754 0  -5.573597213364169 -0.03612430678117123 0  2.024792870869397 0.05574071630590883 0  -1.578875191508968 0.861424470724936 0  -1.54706008231699 -0.8630049102346303 0  3.848662181064435 -1.569601980075533 0  -2.000000000003871 -0.9746445732264465 0  -1.99999999
[...]
<PointData  Vectors="f_22"> 
<DataArray  type="Float64"  Name="f_22"  NumberOfComponents="3" format="ascii">0.0000000000000000e+00 0.0000000000000000e+00 0.0000000000000000e+00  0.0000000000000000e+00 0.0000000000000000e+00 0.0000000000000000e+00  0.0000000000000000e+00 0.0000000000000000e+00 0.0000000000000000e+00  0.0000000000000000e+00 0.0000000000000000e+00 0.0000000000000000e+00  9.9999995775385320e-01 0.0000000000000000e+00 0.0000000000000000e+00  9.9999995775385320e-01 0.0000000000000000e+00 0.0000000000000000e+00  0.0000000000000000e+00 0.0000000000000000e+00 0.0000000000000000e+00  0.0000000000000000e+00 0.0000000000000000e+00 0.0000000000000000e+00  0.0000000000000000e+00 0.0000000000000000e+00 0.0000000000000000e+00  0.0000000000000000e+00 0.0000000000000000e+00 0.0000000000000000e+00  0.0000000000000000e+00 0.0000000000000000e+00 0.0000000000000000e+00  0.0000000000000000e+00 0.0000000000000000e+00 0.0000000000000000e+00  0.0000000000000000e+00 0.0000000000000000e+00 0.0000000000000000e+00  0.0000000000000000e+00 0.0000000000000000e+00 0.0000000000000000e+00  0.0000000000000000e+00 0.0000000000000000e+00 0.0000000000000000e+00  0.0000000000000000e+00 0.0000000000000000e+00 0.0000000000000000e+00  0.0000000000000000e+00 0.0000000000000000e+00 0.0000000000000000e+00  0.0000000000000000e+00 0.0000000000000000e+00 0.0000000000000000e+00  0.0000000000000000e+00 0.0000000000000000e+00 0.0000000000000000e+00  0.0000000000000000e+00 0.0000000000000000e+00 0.0000000000000000e+00  0.0000000000000000e+00 0.0000000000000000e+00 0.0000000000000000e+00  0.0000000000000000e+00 0.0000000000000000e+00 0.0000000000000000e+00  0.0000000000000000e+00 0.0000000000000000e+00 0.0000000000000000e+00  0.0000000000000000e+00 0.0000000000000000e+00 0.0000000000000000e+00  0.0000000000000000e+00 0.0000000000000000e+00 0.0000000000000000e+00  0.0000000000000000e+00 0.0000000000000000e+00 0.0000000000000000e+00  0.0000000000000000e+00 0.0000000000000000e+00 0.0000000000000000e+00  0.0000000000000000e+00 0.0000000000000000e+00 0.0000000000000000e+00  0.0000000000000000e+00 0.0000000000000000e+00 0.0000000000000000e+00  3.3236236124024710e-01 -2.9907841289862234e-04 0.0000000000000000e+00  5.8790743702958048e-01 -5.1162535851095251e-04 0.0000000000000000e+00  7.3945338139626815e-01 -4.5607399793282506e-04 0.0000000000000000e+00  7.8982065530443024e-01 -2.3462347492417467e-05 0.0000000000000000e+00  7.3940742578345509e-01 4.0584062663520637e-04 0.0000000000000000e+00  5.8784730555329823e-01 5.1064571733866904e-04 0.0000000000000000e+00  3.3237702847380912e-01 2.5669258243741312e-04 0.0000000000000000e+00  0.0000000000000000e+00 0.0000000000000000e+00 0.0000000000000000e+00  0.0000000000000000e+00 0.0000000000000000e+00 0.0000000000000000e+00  0.0000000000000000e+00 0.0000000000000000e+00 0.0000000000000000e+00  0.0000000000000000e+00 0.0000000000000000e+00 0.0000000000000000e+00  0.0000000000000000e+00 0.0000000000000000e+00 0.0000000000000000e+00  0.0000000000000000e+00 0.0000000000000000e+00 0.0000000000000000e+00  0.0000000000000000e+00 0.0000000000000000e+00 0.0000000000000000e+00  0.0000000000000000e+00 0.0000000000000000e+00 0.0000000000000000e+00  0.0000000000000000e+00 0.0000000000000000e+00 0.0000000000000000e+00  0.0000000000000000e+00 0.0000000000000000e+00 0.0000000000000000e+00  0.0000000000000000e+00 0.0000000000000000e+00 0.0000000000000000e+00  0.0000000000000000e+00 0.0000000000000000e+00 0.0000000000000000e+00  0.0000000000000000e+00 0.0000000000000000e+00 0.0000000000000000e+00  0.0000000000000000e+00 0.0000000000000000e+00 0.0000000000000000e+00  0.0000000000000000e+00 0.0000000000000000e+00 0.0000000000000000e+00  0.0000000000000000e+00 0.0000000000000000e+00 0.0000000000000000e+00  0.0000000000000000e+00 0.0000000000000000e+00 0.0000000000000000e+00  0.0000000000000000e+00 0.0000000000000000e+00 0.0000000000000000e+00  0.0000000000000000e+00 0.0000000000000000e+00 0.0000000000000000e+00  0.0000000000000000e+00 0.0000000000000000e+00 0.0000000000000000e+00  0.0000000000000000e+00 0.0000000000000000e+00 0.0000000000000000e+00  0.0000000000000000e+00 0.0000000000000000e+00 0.0000000000000000e+00  0.0000000000000000e+00 0.0000000000000000e+00 0.0000000000000000e+00  3.3107735439267588e-01 -5.7837627120194070e-04 0.0000000000000000e+00  5.8729222480713350e-01 -9.7460639446671606e-04 0.0000000000000000e+00  7.4021034634785310e-01 -7.8272411106347997e-04 0.0000000000000000e+00  7.9163233029715674e-01 -4.5702600407712769e-06 0.0000000000000000e+00  7.4089375466496143e-01 9.0565038155924278e-04 0.0000000000000000e+00  5.8761862115915076e-01 1.0408111194995147e-03 0.0000000000000000e+00  3.3110997785361601e-01 6.2652346091116951e-04 0.0000000000000000e+00  9.9999995775385320e-01 0.0000000000000000e+00 0.0000000000000000e+00  9.9999995775385320e-01 0.0000000000000000e+00 0.0000000000000000e+00  9.9999995775385320e-01 0.0000000000000000e+00 0.0000000000000000e+00  9.9999995775385320e-01 0.0000000000000000e+00 0.0000000000000000e+00  9.9999995775385320e-01 0.0000000000000000e+00 0.0000000000000000e+00  9.9999995775385320e-01 0.0000000000000000e+00 0.0000000000000000e+00  9.9999995775385320e-01 0.0000000000000000e+00 0.0000000000000000e+00  9.9999995775385320e-01 0.0000000000000000e+00 0.0000000000000000e+00  9.9999995775385320e-01 0.0000000000000000e+00 0.0000000000000000e+00  9.9999995775385320e-01 0.0000000000000000e+00 0.0000000000000000e+00  9.9999995775385320e-01 0.0000000000000000e+00 0.0000000000000000e+00  9.9999995775385320e-01 0.0000000000000000e+00 0.0000000000000000e+00  9.9999995775385320e-01 0.0000000000000000e+00 0.0000000000000000e+00  9.9999995775385320e-01 0.0000000000000000e+00 0.0000000000000000e+00  9.9999995775385320e-01 0.0000000000000000e+00 0.0000000000000000e+00  9.9999995775385320e-01 0.0000000000000000e+00 0.0000000000000000e+00  9.9999995775385320e-01 0.0000000000000000e+00 0.0000000000000000e+00  9.9999995775385320e-01 0.0000000000000000e+00 0.0000000000000000e+00  9.9999995775385320e-01 0.0000000000000000e+00 0.0000000000000000e+00  9.9999995775385320e-01 0.0000000000000000e+00 0.0000000000000000e+00  9.9999995775385320e-01 0.0000000000000000e+00 0.0000000000000000e+00  9.9999995775385320e-01 0.0000000000000000e+00 0.0000000000000000e+00  9.9999995775385320e-01 0.0000000000000000e+00 0.0000000000000000e+00  9.9999995775385320e-01 0.0000000000000000e+00 0.0000000000000000e+00  8.5337882772303508e-01 1.6338124402297104e-02 0.0000000000000000e+00  7.8546127476059291e-01 -5.7184889712767568e-03 0.0000000000000000e+00  7.0604009840844484e-01 3.3892243939291147e-02 0.0000000000000000e+00  7.4729443397324002e-01 -5.2503869100004853e-02 0.0000000000000000e+00  8.0774349257923894e-01 1.7473908235733339e-05 0.0000000000000000e+00  7.4330333875616983e-01 -4.9476232783361405e-02 0.0000000000000000e+00  7.7668075466786002e-01 9.7937930863966423e-04 0.0000000000000000e+00  8.0034439656450773e-01 6.0340126670500108e-02 0.0000000000000000e+00  4.3200200069900674e-01 -9.7082960609783608e-02 0.0000000000000000e+00  4.2096732169551282e-01 9.9841515461395622e-02 0.0000000000000000e+00  6.7268891143216381e-01 -2.4377820715900861e-02 0.0000000000000000e+00  6.8908537645370160e-01 4.5580526009176385e-03 0.0000000000000000e+00  4.1753272908183209e-01 9.6513680669128951e-02 0.0000000000000000e+00  3.0830209150591664e-01 -8.6806228199615074e-02 0.0000000000000000e+00  8.4836108479403172e-01 2.6797588283868318e-02 0.0000000000000000e+00  9.4925159962814620e-01 -1.6757393806331861e-02 0.0000000000000000e+00  6.7975361897724906e-01 1.5673914765278650e-02 0.0000000000000000e+00  6.5269699829652839e-01 -3.2006269715552566e-03 0.0000000000000000e+00  6.5535445653088387e-01 -1.0922044584371585e-03 0.0000000000000000e+00  6.4013325804331123e-01 3.8996743583338904e-03 0.0000000000000000e+00  4.7400639735418271e-01 -1.2720251530039700e-02 0.0000000000000000e+00  1.7471582916609180e-01 1.0138035667021247e-01 0.0000000000000000e+00  1.3068823418078779e-01 2.8728827184340309e-02 0.0000000000000000e+00  1.2853851494606908e-01 -2.7582863013330357e-02 0.0000000000000000e+00  1.7379652402555945e-01 -1.0117382568579311e-01 0.0000000000000000e+00  6.4905746220217853e-01 -3.1005753947895278e-03 0.0000000000000000e+00  6.0031621548651570e-01 -1.0078558388238415e-02 0.0000000000000000e+00  6.0315903117664016e-01 9.1941359744626846e-04 0.0000000000000000e+00  4.7246085282960903e-01 3.9062647365459238e-02 0.0000000000000000e+00  7.9194223674334552e-01 -4.1028870745699400e-04 0.0000000000000000e+00  7.4790524867074260e-01 1.0670117874837208e-01 0.0000000000000000e+00  8.3233738661928902e-01 -8.7140665607885873e-02 0.0000000000000000e+00  9.3333420745679252e-01 4.1984257194083212e-02 0.0000000000000000e+00  7.9969115655388523e-01 -8.6080420895829610e-02 0.0000000000000000e+00  4.7296196225874709e-01 1.0179096645743081e-02 0.0000000000000000e+00  8.2577003406726346e-01 -2.0815874060762605e-03 0.0000000000000000e+00  4.8572248851075972e-01 5.8606707312542682e-03 0.0000000000000000e+00  7.9070087307804060e-01 4.5069889869284405e-05 0.0000000000000000e+00  5.1826530368413459e-01 1.5016863628984905e-03 0.0000000000000000e+00  8.1050392854324360e-01 7.8310427784473394e-03 0.0000000000000000e+00  4.3071173415334363e-01 -3.2991732356206518e-02 0.0000000000000000e+00  4.1147716764937997e-01 2.8528639830420820e-02 0.0000000000000000e+00  4.7789018031222180e-01 -3.6433157660768704e-02 0.0000000000000000e+00  8.0961438724499790e-01 -2.5746584518048270e-02 0.0000000000000000e+00  7.9745873321930250e-01 4.3960868201852138e-04 0.0000000000000000e+00  4.2900324923722721e-01 1.7597046128977378e-01 0.0000000000000000e+00  4.8227489580459870e-01 9.2842282064324461e-02 0.0000000000000000e+00  2.3610479643629978e-01 5.1726346489022759e-02 0.0000000000000000e+00  4.6105182095749253e-01 -9.1627692529858348e-02 0.0000000000000000e+00  2.3622551605658010e-01 -5.1473561772014731e-02 0.0000000000000000e+00  4.3282210654868486e-01 -1.7609566235558821e-01 0.0000000000000000e+00  4.7968396138986452e-01 -1.2893673397096645e-03 0.0000000000000000e+00  3.9375492584732613e-01 6.2310727520931829e-02 0.0000000000000000e+00  3.0206837694109751e-01 -4.9187789782888076e-02 0.0000000000000000e+00  9.0997759362435326e-01 1.0578005932269444e-02 0.0000000000000000e+00  4.7432927005688730e-01 -3.9040142940470045e-03 0.0000000000000000e+00  6.8445583540513188e-01 -1.5660656284854363e-01 0.0000000000000000e+00  4.2521071829037543e-01 1.8843750666445672e-02 0.0000000000000000e+00  4.3937960524720027e-01 1.5949519213811132e-03 0.0000000000000000e+00  7.5439594052200543e-01 9.4950390011914326e-02 0.0000000000000000e+00  7.8837131828723417e-01 3.7854109800530052e-03 0.0000000000000000e+00  9.0980226984648915e-01 -1.5912501453698737e-02 0.0000000000000000e+00  9.8568435410865762e-01 9.4823024895119169e-03 0.0000000000000000e+00  7.4440278414330641e-01 -1.6098551528711750e-03 0.0000000000000000e+00  4.3765436571462335e-01 -4.7816338550740192e-04 0.0000000000000000e+00  9.4817944471542792e-01 -3.8147588394371282e-02 0.0000000000000000e+00  7.0083586148151789e-01 -2.2257831625240969e-02 0.0000000000000000e+00  4.0543807140076743e-01 -1.1378622976716289e-02 0.0000000000000000e+00  8.3306317286567100e-01 -1.4337838025743711e-02 0.0000000000000000e+00  6.6159268113573833e-01 1.6505103907964627e-01 0.0000000000000000e+00  8.2082497328474469e-01 1.2556460055671773e-02 0.0000000000000000e+00  9.4935391762750365e-01 1.5605135521510747e-02 0.0000000000000000e+00  3.8091188993820746e-01 -3.2966344909569601e-03 0.0000000000000000e+00  8.7369671624443257e-01 9.1575639393772321e-02 0.0000000000000000e+00  6.6425381366162628e-01 -8.4484523403070607e-03 0.0000000000000000e+00  7.3495921673124043e-01 -4.9937549681839666e-03 0.0000000000000000e+00  6.7873870742350795e-01 1.4760329231907848e-02 0.0000000000000000e+00  6.2489479774993695e-01 -8.2729236144657450e-02 0.0000000000000000e+00  3.7883464026123070e-01 6.9418935848160074e-03 0.0000000000000000e+00  7.5646655722137945e-01 -9.3162909839298189e-02 0.0000000000000000e+00  4.1576834872448049e-01 -1.2188955769004484e-03 0.0000000000000000e+00  3.9864373190109698e-01 1.3186777406370390e-01 0.0000000000000000e+00  4.4636319870389807e-01 -3.9735510761284107e-02 0.0000000000000000e+00  4.4956509126570432e-01 4.0155135761236492e-02 0.0000000000000000e+00  3.9837520978512458e-01 -1.3209917557217266e-01 0.0000000000000000e+00  8.5268029901861875e-01 -5.9412668889393741e-02 0.0000000000000000e+00  7.4151845858961651e-01 9.3058222050036252e-03 0.0000000000000000e+00  7.0840126900561906e-01 4.6576918689901131e-02 0.0000000000000000e+00  8.3564545363967091e-01 -9.4908192603360159e-03 0.0000000000000000e+00  7.5309853626646894e-01 1.2755405555567713e-03 0.0000000000000000e+00  7.3344873348270478e-01 -6.4432323196084260e-04 0.0000000000000000e+00  4.0003290799072583e-01 -1.7118506729950982e-03 0.0000000000000000e+00  6.2207272382911638e-01 -8.3203126142346040e-02 0.0000000000000000e+00  9.9168890640959362e-01 -6.9190178906952150e-03 0.0000000000000000e+00  6.2939487294663976e-01 3.2242640495128289e-02 0.0000000000000000e+00  3.9004932917397084e-01 2.5146762614179675e-03 0.0000000000000000e+00  4.2426753810751183e-01 -6.1572650093848929e-04 0.0000000000000000e+00  3.9426668643441720e-01 4.1995822418116615e-04 0.0000000000000000e+00  4.1694050783318004e-01 1.5879571250130529e-03 0.0000000000000000e+00  7.4956772290897744e-01 4.9749231542629627e-03 0.0000000000000000e+00  6.4090301991057308e-01 9.0153987000639715e-02 0.0000000000000000e+00  7.1790332532232393e-01 6.3409724685997021e-04 0.0000000000000000e+00  1.1525231827471169e-01 -4.3377662568331379e-02 0.0000000000000000e+00  5.6087873045170977e-01 5.9371861107783565e-02 0.0000000000000000e+00  6.9745078341072142e-01 -1.4107431741313771e-02 0.0000000000000000e+00  7.5154748166397878e-01 2.2861222567646172e-03 0.0000000000000000e+00  1.1495998140680103e-01 4.3090491867230712e-02 0.0000000000000000e+00  1.4726162947087515e-02 2.9082486774535319e-02 0.0000000000000000e+00  9.3786025972347666e-03 2.8461590695089408e-02 0.0000000000000000e+00  9.3417463539919796e-03 -2.8426397736062280e-02 0.0000000000000000e+00  3.3492343525630970e-02 -3.3928128274865466e-02 0.0000000000000000e+00  3.7873889021725116e-01 5.3055671375139431e-04 0.0000000000000000e+00  3.2688680941975945e-01 -1.3694289408736118e-02 0.0000000000000000e+00  8.9477296826788677e-01 -2.1241937862416412e-02 0.0000000000000000e+00  7.5843696723607823e-01 -4.3452075908135346e-03 0.0000000000000000e+00  9.4915214097203793e-01 3.3424126201986794e-02 0.0000000000000000e+00  2.3072744933311448e-01 -2.3297559532706874e-02 0.0000000000000000e+00  7.4252608810138410e-01 -1.1712224717843282e-03 0.0000000000000000e+00  3.3231844837166302e-01 2.5401363137381662e-03 0.0000000000000000e+00  7.7541548470961263e-01 -7.0007321108577489e-04 0.0000000000000000e+00  6.8054224579117051e-01 -1.8854508161153716e-01 0.0000000000000000e+00  8.1165205685245079e-01 8.1269432689220059e-02 0.0000000000000000e+00  8.4537976027155737e-01 -3.6232758416109512e-02 0.0000000000000000e+00  3.4064062545207879e-01 -3.5949736424232275e-03 0.0000000000000000e+00  7.4974962486904650e-01 9.3636678586689033e-04 0.0000000000000000e+00  1.2562292470852399e-01 3.4371757939418747e-02 0.0000000000000000e+00  7.6781859775480332e-01 -7.6409909532274270e-03 0.0000000000000000e+00  7.7885869268515795e-01 5.2764837129012879e-02 0.0000000000000000e+00  9.7945214482887011e-01 2.1204618104779870e-02 0.0000000000000000e+00  2.1054972323025084e-01 1.9793500972694208e-02 0.0000000000000000e+00  7.8582723902951235e-01 -1.2186109982360919e-02 0.0000000000000000e+00  9.0280892981750294e-01 -9.7623993887974103e-02 0.0000000000000000e+00  3.2304317355081530e-01 -1.1855749074613573e-02 0.0000000000000000e+00  7.9413445131398008e-01 -3.7153211547528818e-04 0.0000000000000000e+00  9.3737033376816148e-01 -4.5410394107973012e-02 0.0000000000000000e+00  8.2504034756264244e-01 1.4927952898516322e-01 0.0000000000000000e+00  9.3588365404547103e-01 4.6383115652888461e-02 0.0000000000000000e+00  8.2612502676828647e-01 -1.5312142339713783e-01 0.0000000000000000e+00  6.6999540665864410e-01 -4.3358982602712468e-02 0.0000000000000000e+00  1.1162073711271794e-01 -3.4831088497623848e-02 0.0000000000000000e+00  2.3677717261387751e-01 2.7493314057224775e-02 0.0000000000000000e+00  2.7644206118910719e-01 1.5934604089624525e-02 0.0000000000000000e+00  5.5924842064775393e-01 2.3060688501818746e-02 0.0000000000000000e+00  8.0333302906978699e-01 2.3809878412382451e-02 0.0000000000000000e+00  6.3165102373414694e-01 1.5000676916696353e-03 0.0000000000000000e+00  2.8379419555933538e-01 -4.2383815710262656e-03 0.0000000000000000e+00  8.9136674401752847e-01 -5.9679426520150899e-03 0.0000000000000000e+00  6.3607177463210740e-01 -3.6844700977883844e-02 0.0000000000000000e+00  2.4201022989042997e-01 2.1467798168426518e-03 0.0000000000000000e+00  2.1080298483595691e-01 -1.9859323775933788e-02 0.0000000000000000e+00  6.0872716619517542e-01 -1.4308780810177472e-03 0.0000000000000000e+00  3.0793550207275533e-01 9.6026039861480134e-03 0.0000000000000000e+00  7.7243712452958235e-01 2.5358922407504622e-03 0.0000000000000000e+00  6.9234798796505659e-01 1.6056473720690275e-03 0.0000000000000000e+00  5.8590122328302074e-01 6.7631343088563438e-03 0.0000000000000000e+00  2.5502616726289351e-01 5.7672756916355714e-03 0.0000000000000000e+00  7.9539944234439452e-01 8.8077571939934179e-03 0.0000000000000000e+00  7.6487148256131610e-01 1.7695406928827810e-02 0.0000000000000000e+00  4.9994914986122313e-01 -5.2410947549245017e-02 0.0000000000000000e+00  6.4524641844855757e-01 6.4055523399362935e-02 0.0000000000000000e+00  9.5622563891052403e-01 -3.4235719810417113e-02 0.0000000000000000e+00  7.9653894404557435e-01 -9.3246190219296301e-04 0.0000000000000000e+00  7.8555957056780346e-01 -2.2014916194220137e-04 0.0000000000000000e+00  8.0588042901286461e-01 3.0721799720895903e-05 0.0000000000000000e+00  6.7553054831173309e-01 2.3161820579659410e-02 0.0000000000000000e+00  5.1678328907876869e-01 -1.5879509954356805e-01 0.0000000000000000e+00  6.8711526568957870e-01 1.8699628943874866e-01 0.0000000000000000e+00  2.5234859103447127e-01 4.2748639746220706e-04 0.0000000000000000e+00  6.1558496703592902e-01 -3.2509868925740183e-02 0.0000000000000000e+00  5.9059561542278405e-01 1.0877061629415629e-02 0.0000000000000000e+00  6.2243060940148820e-01 -1.6110311368847935e-01 0.0000000000000000e+00  6.2879828841347263e-01 1.5854095342758928e-01 0.0000000000000000e+00  7.9176858109008763e-01 6.3714191785329812e-05 0.0000000000000000e+00  8.1475117178686984e-01 1.2123757935655110e-03 0.0000000000000000e+00  7.5033527011006151e-01 6.8976734088220693e-02 0.0000000000000000e+00  7.4205415305390054e-01 -7.4078068983902137e-02 0.0000000000000000e+00  2.8634235463512864e-01 -6.4464826540486285e-04 0.0000000000000000e+00  5.3947768967991594e-01 3.2018120929587231e-02 0.0000000000000000e+00  5.3946486522200443e-01 -3.2046010134818149e-02 0.0000000000000000e+00  3.1431084544099802e-01 -1.1338526159780586e-01 0.0000000000000000e+00  6.1055801395005216e-01 2.6810940766836718e-03 0.0000000000000000e+00  5.4577339377158529e-01 1.0861518223861631e-01 0.0000000000000000e+00  8.6578587848244815e-01 -2.1595248618242703e-03 0.0000000000000000e+00  5.9309362243185748e-01 5.9257408677986997e-04 0.0000000000000000e+00  6.1456970668639732e-01 -6.2566389630604993e-04 0.0000000000000000e+00  5.9252420480659573e-01 5.2149110370591821e-03 0.0000000000000000e+00  2.4451171703995528e-01 8.0269725322229243e-02 0.0000000000000000e+00  5.1370919268115478e-01 -1.0854007723688176e-01 0.0000000000000000e+00  6.3700422706651938e-01 -7.0954440948559289e-03 0.0000000000000000e+00  6.4515388459847889e-01 -1.5317987405929199e-03 0.0000000000000000e+00  2.5334653682861713e-01 -3.2030864840346547e-04 0.0000000000000000e+00  2.4599643987486813e-01 -3.5445200199260359e-03 0.0000000000000000e+00  8.1720290088585767e-01 -3.3103054866852534e-02 0.