<?xml version="1.0"?>
<VTKFile type="UnstructuredGrid"  version="0.1"  >
<UnstructuredGrid>
<Piece  NumberOfPoints="622" NumberOfCells="1116">
<Points>
<DataArray  type="Float64"  NumberOfComponents="3"  format="ascii">-6 -2 0  -6 2 0  6 2 0  6 -2 0  -2.8 0 0  -1.2 0 0  -5.500000000001853 -2 0  -5.000000000003705 -2 0  -4.500000000005556 -2 0  -4.000000000007409 -2 0  -3.50000000000926 -2 0  -3.000000000011112 -2 0  -2.500000000012963 -2 0  -2.000000000014814 -2 0  -1.500000000016665 -2 0  -1.000000000018516 -2 0  -0.5000000000203677 -2 0  -2.204547655537681e-11 -2 0  0.4999999999796305 -2 0  0.9999999999814779 -2 0  1.499999999983327 -2 0  1.999999999985175 -2 0  2.499999999987029 -2 0  2.999999999988882 -2 0  3.499999999990735 -2 0  3.999999999992589 -2 0  4.49999999999444 -2 0  4.999999999996293 -2 0  5.499999999998147 -2 0  6 -1.500000000001387 0  6 -1.000000000002774 0  6 -0.5000000000041616 0  6 -5.505595979116151e-12 0  6 0.4999999999958384 0  6 0.9999999999972258 0  6 1.499999999998613 0  5.500000000001853 2 0  5.000000000003705 2 0  4.500000000005556 2 0  4.000000000007409 2 0  3.50000000000926 2 0  3.000000000011112 2 0  2.500000000012963 2 0  2.000000000014814 2 0  1.500000000016665 2 0  1.000000000018516 2 0  0.5000000000203677 2 0  2.204547655537681e-11 2 0  -0.4999999999796305 2 0  -0.9999999999814779 2 0  -1.499999999983327 2 0  -1.999999999985175 2 0  -2.499999999987029 2 0  -2.999999999988882 2 0  -3.499999999990735 2 0  -3.999999999992589 2 0  -4.49999999999444 2 0  -4.999999999996293 2 0  -5.499999999998147 2 0  -6 1.500000000001387 0  -6 1.000000000002774 0  -6 0.5000000000041616 0  -6 5.505595979116151e-12 0  -6 -0.4999999999958384 0  -6 -0.9999999999972258 0  -6 -1.499999999998613 0  -2.796147781337886 -0.07841371226233997 0  -2.784628224322852 -0.1560722576115546 0  -2.765552268586196 -0.2322277418021561 0  -2.739103626009626 -0.30614674589063 0  -2.705537011479457 -0.3771173894593519 0  -2.665175689843037 -0.4444561864141836 0  -2.618408362691456 -0.5075146273293722 0  -2.565685424950688 -0.5656854249477874 0  -2.507514627332613 -0.6184083626887972 0  -2.444456186417533 -0.6651756898407991 0  -2.377117389462776 -0.7055370114776264 0  -2.306146745894456 -0.7391036260080417 0  -2.232227741806235 -0.7655522685849585 0  -2.15607225761588 -0.784628224321992 0  -2.078413712266957 -0.7961477813374315 0  -2.000000000003407 -0.7999999999999998 0  -1.921586287739523 -0.7961477813380696 0  -1.843927742389945 -0.7846282243231506 0  -1.767772258198879 -0.7655522685865098 0  -1.693853254109962 -0.7391036260098718 0  -1.622882610540873 -0.7055370114795768 0  -1.555543813585629 -0.6651756898429115 0  -1.49248537267008 -0.6184083626910072 0  -1.434314575051535 -0.5656854249500112 0  -1.381591637310384 -0.5075146273316149 0  -1.334824310158267 -0.4444561864161359 0  -1.294462988521423 -0.3771173894609975 0  -1.260896373990956 -0.3061467458920351 0  -1.234447731414138 -0.2322277418032578 0  -1.215371775677287 -0.156072257612254 0  -1.203852218662147 -0.07841371226267954 0  -1.203852218662115 0.07841371226235888 0  -1.215371775677132 0.156072257611478 0  -1.234447731413795 0.232227741802127 0  -1.260896373990353 0.3061467458905811 0  -1.294462988520456 0.3771173894591898 0  -1.334824310156812 0.444456186413959 0  -1.381591637308413 0.5075146273292139 0  -1.434314575049147 0.5656854249476236 0  -1.492485372667197 0.6184083626886415 0  -1.555543813582104 0.6651756898405565 0  -1.62288261053673 0.7055370114773629 0  -1.693853254105125 0.7391036260078683 0  -1.767772258193396 0.7655522685848468 0  -1.84392774238373 0.7846282243219146 0  -1.921586287732977 0.7961477813374253 0  -1.999999999996558 0.8 0  -2.078413712260516 0.7961477813380661 0  -2.156072257610207 0.7846282243231205 0  -2.232227741801178 0.7655522685864928 0  -2.306146745890059 0.7391036260098632 0  -2.377117389459098 0.7055370114795929 0  -2.444456186414405 0.6651756898428894 0  -2.50751462732998 0.6184083626909587 0  -2.565685424948549 0.5656854249499272 0  -2.61840836268981 0.5075146273313792 0  -2.665175689841831 0.4444561864159886 0  -2.705537011478692 0.3771173894607835 0  -2.739103626009108 0.3061467458918818 0  -2.76555226858589 0.2322277418031643 0  -2.784628224322724 0.1560722576122001 0  -2.796147781337853 0.07841371226267957 0  0.6720367661319522 0.1312687487860887 0  -4.389489086394485 0.3544472233398538 0  -3.816221554046232 -0.6097988664512611 0  -3.552726516474419 0.9342959806851625 0  -0.2536610443052337 0.8162373554653355 0  -0.1843238977799138 -0.6649951410982842 0  -3.613359951620445 0.1086570650978273 0  -3.146954163409593 -1.074378179335012 0  -0.4255266515582625 0.07734891565364931 0  -0.9413731612925856 1.168014724254929 0  -2.947764053183577 1.200029094390044 0  -0.8319852757411681 -1.058626838707328 0  2.675418990747819 -1.137325591670363e-12 0  -2.602010642259726 -1.287560129290477 0  -2.334401622060699 1.335006108940604 0  -1.524718496628401 1.32890816230333 0  -1.369813829148039 -1.26145150481762 0  -3.294065651892671 -0.4630240940010318 0  -2.072749204569071 -1.388981302138359 0  -0.7546165313921411 0.5601792161340381 0  -3.224879719581335 0.4382689715877901 0  -0.7073137361349826 -0.4625305410752652 0  4.326242945813966 0.3262429458150917 0  -3.187880061217201 0.07437712177460168 0  -2.94792024259867 0.7030255657465158 0  -2.678809277907896 0.9152683582887104 0  -4.911626141576894 -0.5700186648601188 0  -2.980647654587299 -0.5685006168686053 0  -2.769438919323564 -0.8202775213660614 0  -1.936950121013948 1.220669938589229 0  -0.8971643766260747 0.2762459428874499 0  -0.8760878018253068 -0.06836412137772707 0  -1.086827485441145 0.6772548942594016 0  -1.31355927028917 0.8808768148414213 0  -1.034266382739347 -0.5912381576649568 0  -1.241594139118264 -0.836771920085274 0  1.667161185638911 -0.6367996576268693 0  1.778189842800902 0.7191719841256095 0  -3.065106827511819 -0.266795371500425 0  3.714311277362231 -0.7275465302492842 0  -1.728329421201519 -1.09954751473283 0  4.870629493137888 -0.7325040699186681 0  -3.024707894719303 0.2567561910603656 0  -4.375540207252226 1.228935704312058 0  -2.272077148001781 -1.086192861256262 0  3.351408248797803 0.9175227128129597 0  -5.141847419540732 0.8091901960109126 0  0.5769368286199241 1.111816231125821 0  0.7411482978492124 -1.079569101289617 0  -1.074013749991219 0.430231207546053 0  -1.04664573441257 -0.3358382377487088 0  -2.439195336951085 0.9224778883059374 0  -2.902607676587358 0.4360473765597399 0  -1.629450174302152 1.035617385691805 0  -2.146859933125513 1.032375363966426 0  2.587625196444542 -0.9999926061845814 0  -2.529286802957126 -0.8830616815739111 0  -1.493798157676768 -0.8794705728517196 0  -1.932158132383022 -1.026681566564148 0  -4.09956359341904 -0.1372485582942864 0  5.055802064425553 1.050933510837308 0  -4.413659685984891 -1.207626391697488 0  -4.961411026474009 0.1201902955685026 0  -3.771151641156835 -1.303594976371997 0  -3.001321503506133 -0.04919177107285733 0  -3.881733605683001 0.5124517634812003 0  -0.1971627317996802 -1.336445372382849 0  -2.742825060181767 0.6732573903735507 0  2.520439429199979 1.129372838786189 0  -1.026326428668429 0.1384273198437734 0  -2.779290004861729 -0.5844691722665721 0  -2.895095740820851 -0.4261289730972082 0  -1.275682076193407 0.6630703172777138 0  0.1045291701958869 0.3433373435296472 0  5.175560481258801 0.0608563229178163 0  -1.211574424201636 -0.5847362589868093 0  -1.85847006217035 1.007917631940711 0  4.152535916385823 1.131901130662082 0  -1.04878257200685 -0.1253529988863012 0  1.432836501626023 0.05634449574318775 0  3.560672936003603 0.01188897172456759 0  -3.351823698389408 -0.1821329582635926 0  -5.145153363200735 -1.259166339382508 0  0.03473693330309885 -0.1724947236036572 0  -4.377830921337186 -0.6172564090242229 0  -0.3943750728122595 1.410897156959435 0  -1.661073679471639 -0.9342065000197183 0  -1.49086536677686 0.8331714487926741 0  -2.584486130952032 0.7871482690034864 0  4.270535884593893 -1.259607924744415 0  -1.757417028085795 -1.505182186951191 0  -3.430586920998477 1.425579221231371 0  -2.917598827418652 -0.2298465409534677 0  -2.328978331116049 -0.9300959620317677 0  -2.148543000691344 -0.9751580214451921 0  1.002654111360038 -0.4521702885594788 0  -4.628651824080903 -0.1127998710567241 0  -2.948904386702482 0.1555943115410545 0  0.4165242577134774 -0.5629432649478633 0  -3.698137692471105 -0.3173027948676715 0  -3.491400684461791 -0.7926319721650269 0  -0.3844454817728994 0.4680628696134375 0  -3.207830713508533 0.9778749990559993 0  3.229909751065535 -1.326302454776001 0  5.330007715336748 -1.312905173261894 0  -2.649214054100534 -0.713314536278899 0  1.342022964818772 -1.328315248672686 0  -2.556460939068198 1.202372762828344 0  -0.3497819755044588 -0.3080427614060888 0  -4.928440909495523 1.387622767511967 0  1.309170811945155 1.337467055109531 0  -1.352031940181449 -0.7151198948590243 0  -0.6132855723904642 0.9519045895123004 0  4.266838388406324 -0.3707357390867402 0  -3.834389788310238 1.371594798941152 0  -1.187890214580146 0.4851427123079557 0  -1.109118888029193 0.3185947354467283 0  0.1837819401738013 1.234799661476361 0  1.108165254659559 0.6237223548284967 0  -0.5266600156584522 -0.8113991260886402 0  -4.643822083543982 0.7834094684931707 0  -1.146235204666366 -0.4027330721405781 0  2.049029845992713 -0.2664662499985428 0  2.002665761665898 -1.328912351029848 0  -1.678783505586872 0.8978832065736417 0  -2.049499525232052 0.9483890761590005 0  -2.229972236535132 0.9181006323151361 0  -3.033763529945482 -1.54240494280775 0  -3.562344364746847 0.5622550957224539 0  -5.524396842903405 -0.2709714867672603 0  -0.9710982764034376 -1.549038578476423 0  3.058819320130555 -0.5375106252795963 0  -4.170365230099585 0.7342553699229977 0  -1.045878746461381 -8.187420622554697e-05 0  -1.864822945411764 -0.9219031104673102 0  -0.6251005091687033 -0.2120650512195049 0  2.317562622406059 0.4886417799113238 0  -0.6674371191466613 0.1483993095055008 0  -2.705757882979874 1.609712312948224 0  
[...]
<PointData  Vectors="f_22"> 
<DataArray  type="Float64"  Name="f_22"  NumberOfComponents="3" format="ascii">0.0000000000000000e+00 0.0000000000000000e+00 0.0000000000000000e+00  0.0000000000000000e+00 0.0000000000000000e+00 0.0000000000000000e+00  0.0000000000000000e+00 0.0000000000000000e+00 0.0000000000000000e+00  0.0000000000000000e+00 0.0000000000000000e+00 0.0000000000000000e+00  9.9999997565134735e-01 0.0000000000000000e+00 0.0000000000000000e+00  9.9999997565134735e-01 0.0000000000000000e+00 0.0000000000000000e+00  0.0000000000000000e+00 0.0000000000000000e+00 0.0000000000000000e+00  0.0000000000000000e+00 0.0000000000000000e+00 0.0000000000000000e+00  0.0000000000000000e+00 0.0000000000000000e+00 0.0000000000000000e+00  0.0000000000000000e+00 0.0000000000000000e+00 0.0000000000000000e+00  0.0000000000000000e+00 0.0000000000000000e+00 0.0000000000000000e+00  0.0000000000000000e+00 0.0000000000000000e+00 0.0000000000000000e+00  0.0000000000000000e+00 0.0000000000000000e+00 0.0000000000000000e+00  0.0000000000000000e+00 0.0000000000000000e+00 0.0000000000000000e+00  0.0000000000000000e+00 0.0000000000000000e+00 0.0000000000000000e+00  0.0000000000000000e+00 0.0000000000000000e+00 0.0000000000000000e+00  0.0000000000000000e+00 0.0000000000000000e+00 0.0000000000000000e+00  0.0000000000000000e+00 0.0000000000000000e+00 0.0000000000000000e+00  0.0000000000000000e+00 0.0000000000000000e+00 0.0000000000000000e+00  0.0000000000000000e+00 0.0000000000000000e+00 0.0000000000000000e+00  0.0000000000000000e+00 0.0000000000000000e+00 0.0000000000000000e+00  0.0000000000000000e+00 0.0000000000000000e+00 0.0000000000000000e+00  0.0000000000000000e+00 0.0000000000000000e+00 0.0000000000000000e+00  0.0000000000000000e+00 0.0000000000000000e+00 0.0000000000000000e+00  0.0000000000000000e+00 0.0000000000000000e+00 0.0000000000000000e+00  0.0000000000000000e+00 0.0000000000000000e+00 0.0000000000000000e+00  0.0000000000000000e+00 0.0000000000000000e+00 0.0000000000000000e+00  0.0000000000000000e+00 0.0000000000000000e+00 0.0000000000000000e+00  0.0000000000000000e+00 0.0000000000000000e+00 0.0000000000000000e+00  2.9732438434361158e-01 1.2027953199564772e-04 0.0000000000000000e+00  3.2635403696254772e-01 1.5769136158295567e-04 0.0000000000000000e+00  3.2799945112806628e-01 -2.0330079501854688e-05 0.0000000000000000e+00  3.2810447271185211e-01 -1.0817120723605004e-05 0.0000000000000000e+00  3.2801888564044535e-01 -8.3414133473144132e-06 0.0000000000000000e+00  3.2704175166581539e-01 2.2010358885808637e-04 0.0000000000000000e+00  2.9792774110561576e-01 -5.0310750677532996e-04 0.0000000000000000e+00  0.0000000000000000e+00 0.0000000000000000e+00 0.0000000000000000e+00  0.0000000000000000e+00 0.0000000000000000e+00 0.0000000000000000e+00  0.0000000000000000e+00 0.0000000000000000e+00 0.0000000000000000e+00  0.0000000000000000e+00 0.0000000000000000e+00 0.0000000000000000e+00  0.0000000000000000e+00 0.0000000000000000e+00 0.0000000000000000e+00  0.0000000000000000e+00 0.0000000000000000e+00 0.0000000000000000e+00  0.0000000000000000e+00 0.0000000000000000e+00 0.0000000000000000e+00  0.0000000000000000e+00 0.0000000000000000e+00 0.0000000000000000e+00  0.0000000000000000e+00 0.0000000000000000e+00 0.0000000000000000e+00  0.0000000000000000e+00 0.0000000000000000e+00 0.0000000000000000e+00  0.0000000000000000e+00 0.0000000000000000e+00 0.0000000000000000e+00  0.0000000000000000e+00 0.0000000000000000e+00 0.0000000000000000e+00  0.0000000000000000e+00 0.0000000000000000e+00 0.0000000000000000e+00  0.0000000000000000e+00 0.0000000000000000e+00 0.0000000000000000e+00  0.0000000000000000e+00 0.0000000000000000e+00 0.0000000000000000e+00  0.0000000000000000e+00 0.0000000000000000e+00 0.0000000000000000e+00  0.0000000000000000e+00 0.0000000000000000e+00 0.0000000000000000e+00  0.0000000000000000e+00 0.0000000000000000e+00 0.0000000000000000e+00  0.0000000000000000e+00 0.0000000000000000e+00 0.0000000000000000e+00  0.0000000000000000e+00 0.0000000000000000e+00 0.0000000000000000e+00  0.0000000000000000e+00 0.0000000000000000e+00 0.0000000000000000e+00  0.0000000000000000e+00 0.0000000000000000e+00 0.0000000000000000e+00  0.0000000000000000e+00 0.0000000000000000e+00 0.0000000000000000e+00  2.9092595915851593e-01 -1.1922397866294520e-03 0.0000000000000000e+00  3.2398016188912382e-01 -1.0075272062690238e-03 0.0000000000000000e+00  3.3383206603883619e-01 -1.4100079313603719e-03 0.0000000000000000e+00  3.3911763623092539e-01 1.1882470760955959e-03 0.0000000000000000e+00  3.3492404631606865e-01 4.1991061149938618e-04 0.0000000000000000e+00  3.2529554646897502e-01 8.1919678690550734e-04 0.0000000000000000e+00  2.9066141516592597e-01 9.4078874514613177e-04 0.0000000000000000e+00  9.9999997565134735e-01 0.0000000000000000e+00 0.0000000000000000e+00  9.9999997565134735e-01 0.0000000000000000e+00 0.0000000000000000e+00  9.9999997565134735e-01 0.0000000000000000e+00 0.0000000000000000e+00  9.9999997565134735e-01 0.0000000000000000e+00 0.0000000000000000e+00  9.9999997565134735e-01 0.0000000000000000e+00 0.0000000000000000e+00  9.9999997565134735e-01 0.0000000000000000e+00 0.0000000000000000e+00  9.9999997565134735e-01 0.0000000000000000e+00 0.0000000000000000e+00  9.9999997565134735e-01 0.0000000000000000e+00 0.0000000000000000e+00  9.9999997565134735e-01 0.0000000000000000e+00 0.0000000000000000e+00  9.9999997565134735e-01 0.0000000000000000e+00 0.0000000000000000e+00  9.9999997565134735e-01 0.0000000000000000e+00 0.0000000000000000e+00  9.9999997565134735e-01 0.0000000000000000e+00 0.0000000000000000e+00  9.9999997565134735e-01 0.0000000000000000e+00 0.0000000000000000e+00  9.9999997565134735e-01 0.0000000000000000e+00 0.0000000000000000e+00  9.9999997565134735e-01 0.0000000000000000e+00 0.0000000000000000e+00  9.9999997565134735e-01 0.0000000000000000e+00 0.0000000000000000e+00  9.9999997565134735e-01 0.0000000000000000e+00 0.0000000000000000e+00  9.9999997565134735e-01 0.0000000000000000e+00 0.0000000000000000e+00  9.9999997565134735e-01 0.0000000000000000e+00 0.0000000000000000e+00  9.9999997565134735e-01 0.0000000000000000e+00 0.0000000000000000e+00  9.9999997565134735e-01 0.0000000000000000e+00 0.0000000000000000e+00  9.9999997565134735e-01 0.0000000000000000e+00 0.0000000000000000e+00  9.9999997565134735e-01 0.0000000000000000e+00 0.0000000000000000e+00  9.9999997565134735e-01 0.0000000000000000e+00 0.0000000000000000e+00  9.9999997565134735e-01 0.0000000000000000e+00 0.0000000000000000e+00  9.9999997565134735e-01 0.0000000000000000e+00 0.0000000000000000e+00  9.9999997565134735e-01 0.0000000000000000e+00 0.0000000000000000e+00  9.9999997565134735e-01 0.0000000000000000e+00 0.0000000000000000e+00  9.9999997565134735e-01 0.0000000000000000e+00 0.0000000000000000e+00  9.9999997565134735e-01 0.0000000000000000e+00 0.0000000000000000e+00  9.9999997565134735e-01 0.0000000000000000e+00 0.0000000000000000e+00  9.9999997565134735e-01 0.0000000000000000e+00 0.0000000000000000e+00  9.9999997565134735e-01 0.0000000000000000e+00 0.0000000000000000e+00  9.9999997565134735e-01 0.0000000000000000e+00 0.0000000000000000e+00  9.9999997565134735e-01 0.0000000000000000e+00 0.0000000000000000e+00  9.9999997565134735e-01 0.0000000000000000e+00 0.0000000000000000e+00  9.9999997565134735e-01 0.0000000000000000e+00 0.0000000000000000e+00  9.9999997565134735e-01 0.0000000000000000e+00 0.0000000000000000e+00  9.9999997565134735e-01 0.0000000000000000e+00 0.0000000000000000e+00  9.9999997565134735e-01 0.0000000000000000e+00 0.0000000000000000e+00  9.9999997565134735e-01 0.0000000000000000e+00 0.0000000000000000e+00  9.9999997565134735e-01 0.0000000000000000e+00 0.0000000000000000e+00  9.9999997565134735e-01 0.0000000000000000e+00 0.0000000000000000e+00  9.9999997565134735e-01 0.0000000000000000e+00 0.0000000000000000e+00  9.9999997565134735e-01 0.0000000000000000e+00 0.0000000000000000e+00  9.9999997565134735e-01 0.0000000000000000e+00 0.0000000000000000e+00  9.9999997565134735e-01 0.0000000000000000e+00 0.0000000000000000e+00  9.9999997565134735e-01 0.0000000000000000e+00 0.0000000000000000e+00  9.9999997565134735e-01 0.0000000000000000e+00 0.0000000000000000e+00  9.9999997565134735e-01 0.0000000000000000e+00 0.0000000000000000e+00  9.9999997565134735e-01 0.0000000000000000e+00 0.0000000000000000e+00  9.9999997565134735e-01 0.0000000000000000e+00 0.0000000000000000e+00  9.9999997565134735e-01 0.0000000000000000e+00 0.0000000000000000e+00  9.9999997565134735e-01 0.0000000000000000e+00 0.0000000000000000e+00  9.9999997565134735e-01 0.0000000000000000e+00 0.0000000000000000e+00  9.9999997565134735e-01 0.0000000000000000e+00 0.0000000000000000e+00  9.9999997565134735e-01 0.0000000000000000e+00 0.0000000000000000e+00  9.9999997565134735e-01 0.0000000000000000e+00 0.0000000000000000e+00  9.9999997565134735e-01 0.0000000000000000e+00 0.0000000000000000e+00  9.9999997565134735e-01 0.0000000000000000e+00 0.0000000000000000e+00  9.9999997565134735e-01 0.0000000000000000e+00 0.0000000000000000e+00  9.9999997565134735e-01 0.0000000000000000e+00 0.0000000000000000e+00  6.3314637025117670e-01 2.4525789743864476e-02 0.0000000000000000e+00  3.5019545080930486e-01 -1.2122665883711296e-02 0.0000000000000000e+00  3.5564406533750770e-01 5.7609109729047599e-02 0.0000000000000000e+00  3.1010287171284340e-01 -8.7413802043943847e-02 0.0000000000000000e+00  5.5098281152695150e-01 2.1931268176267177e-01 0.0000000000000000e+00  6.3473506098078214e-01 -1.6549371866144627e-01 0.0000000000000000e+00  4.2713237850574481e-01 -2.0058794455453079e-02 0.0000000000000000e+00  2.2128501679609830e-01 1.3009008720197937e-01 0.0000000000000000e+00  8.7252650615395078e-01 1.7025057814346944e-02 0.0000000000000000e+00  7.0120653870750282e-02 1.7420137339792433e-01 0.0000000000000000e+00  1.4810353182650754e-01 -1.1893781711513374e-01 0.0000000000000000e+00  3.4800863448990077e-01 -2.4868845301150297e-01 0.0000000000000000e+00  3.4783282697668921e-01 -1.5676018380179237e-04 0.0000000000000000e+00  -4.3357223514341242e-03 1.8595610666033635e-01 0.0000000000000000e+00  -1.7982503554664714e-01 -2.6744294680557312e-01 0.0000000000000000e+00  -4.2416553187348210e-01 -2.2903093604380742e-01 0.0000000000000000e+00  -2.9526642338150610e-01 1.2517874753268415e-01 0.0000000000000000e+00  4.2445248388231932e-01 1.5186921168118162e-01 0.0000000000000000e+00  -3.4559620671873226e-01 3.0418983088847373e-01 0.0000000000000000e+00  8.6417161359611294e-01 1.2986896537924572e-01 0.0000000000000000e+00  4.4688842930090078e-01 -1.7078409025119334e-01 0.0000000000000000e+00  8.7549485386676007e-01 -1.0652670974894866e-01 0.0000000000000000e+00  3.2863862570959418e-01 4.5275939609706065e-04 0.0000000000000000e+00  5.7398708574493751e-01 -4.0497394403310107e-02 0.0000000000000000e+00  2.8416656765833476e-01 -3.1575306812169190e-01 0.0000000000000000e+00  2.6088903712446418e-02 -3.9065328849857622e-01 0.0000000000000000e+00  3.3631944625409643e-01 6.3989206724372558e-03 0.0000000000000000e+00  3.8772399930823381e-01 3.2344391322626825e-01 0.0000000000000000e+00  1.2357560299608958e-01 3.9523196519795956e-01 0.0000000000000000e+00  -3.5331072602927821e-01 -3.5640270090812071e-01 0.0000000000000000e+00  9.5481563680575510e-01 4.5840981863989522e-02 0.0000000000000000e+00  9.6736279522402591e-01 -1.2380679725876436e-02 0.0000000000000000e+00  9.5016891270281356e-01 9.6072499047229448e-02 0.0000000000000000e+00  6.8343014021304194e-01 3.6400677624644044e-02 0.0000000000000000e+00  9.4216627035062073e-01 -8.9434680883607676e-02 0.0000000000000000e+00  8.0272965911788219e-01 -6.6776848126630595e-02 0.0000000000000000e+00  3.7192726900801909e-01 -9.5429816674826307e-02 0.0000000000000000e+00  3.4652926821874763e-01 9.2798018524569731e-02 0.0000000000000000e+00  5.8361427651100051e-01 1.9572916776034535e-01 0.0000000000000000e+00  3.2817499534622774e-01 -2.4858537724054622e-03 0.0000000000000000e+00  -1.3297930286226833e-01 2.2814286246508614e-01 0.0000000000000000e+00  3.2785479376102594e-01 -2.8311510216073448e-04 0.0000000000000000e+00  6.1324593675258876e-01 -2.1081301923915557e-01 0.0000000000000000e+00  3.1055349009504574e-01 -1.8175521997976989e-02 0.0000000000000000e+00  -2.8273028820835427e-01 4.5258684756722534e-01 0.0000000000000000e+00  3.2495916684805115e-01 4.8422578270791491e-03 0.0000000000000000e+00  3.2971599935466694e-01 -4.1325907325803560e-03 0.0000000000000000e+00  2.2961304989551987e-01 1.5554063740018956e-01 0.0000000000000000e+00  2.4974015551249956e-01 -1.5429442345837563e-01 0.0000000000000000e+00  9.6507480200280971e-01 4.9725473270977240e-02 0.0000000000000000e+00  9.7204039089467020e-01 -3.9388452193595214e-02 0.0000000000000000e+00  -1.6756794038386094e-01 -5.3327715571048495e-01 0.0000000000000000e+00  5.1912385441339770e-01 -3.6349118785317386e-01 0.0000000000000000e+00  7.0132067002547968e-02 -1.5469776262946447e-01 0.0000000000000000e+00  -2.9134586239690169e-01 -4.1606947771558156e-01 0.0000000000000000e+00  3.1819196126037907e-01 -2.1900510060464951e-02 0.0000000000000000e+00  -7.5689538981925070e-02 5.2129061541536359e-01 0.0000000000000000e+00  6.2323830264326119e-01 8.3909547460484252e-03 0.0000000000000000e+00  -1.7356958916743070e-01 2.8957179735745137e-01 0.0000000000000000e+00  3.6914960071932362e-01 1.0068605040711510e-02 0.0000000000000000e+00  3.2543331472890674e-01 4.7320804268829894e-04 0.0000000000000000e+00  3.1178168816080648e-01 1.7476177588759207e-02 0.0000000000000000e+00  3.4206445883214359e-01 -8.7867200546186484e-04 0.0000000000000000e+00  2.7877444909002397e-01 4.0569475314511987e-02 0.0000000000000000e+00  7.1920235106367958e-01 3.8404369759114085e-02 0.0000000000000000e+00  3.6294440591711857e-01 -4.4970747565282639e-02 0.0000000000000000e+00  -2.9380959360246900e-02 -2.1540336339643723e-01 0.0000000000000000e+00  2.2314542927317066e-01 -4.9610895583709869e-01 0.0000000000000000e+00  3.0938549836775181e-01 2.3307592760153182e-02 0.0000000000000000e+00  9.8630075663465822e-01 1.4820666286140441e-02 0.0000000000000000e+00  3.3499129078866152e-01 4.9950076253851966e-01 0.0000000000000000e+00  5.3819232318791088e-01 3.6020509157690256e-01 0.0000000000000000e+00  9.9082396911507165e-01 3.7129834377803553e-02 0.0000000000000000e+00  7.0580643397816512e-01 7.1744277881998317e-02 0.0000000000000000e+00  3.2822007331704317e-01 1.0177810616738466e-04 0.0000000000000000e+00  9.7763607347120174e-01 -4.4344834396485310e-02 0.0000000000000000e+00  -7.7499303156100402e-02 -2.3610935278103215e-01 0.0000000000000000e+00  3.2375745453794474e-01 9.1136734294855947e-04 0.0000000000000000e+00  9.8938098804839558e-01 -1.2999325998931794e-02 0.0000000000000000e+00  4.9537529070431907e-01 1.0392202993230645e-02 0.0000000000000000e+00  3.3153589443252729e-01 8.7488978429262388e-05 0.0000000000000000e+00  4.8777525016157658e-01 6.5754886064061657e-02 0.0000000000000000e+00  3.1478986471293502e-01 4.2697872388036571e-03 0.0000000000000000e+00  7.5656774372403279e-01 -3.8065812791227810e-02 0.0000000000000000e+00  3.4117700413724600e-01 1.9706211540985365e-02 0.0000000000000000e+00  -1.2798989777415543e-01 2.1881689866448956e-01 0.0000000000000000e+00  3.1242734553047979e-01 7.4585548208758248e-02 0.0000000000000000e+00  7.9350535577834647e-01 4.2412176126735276e-03 0.0000000000000000e+00  -1.0190472433125715e-02 -5.8700656193433509e-01 0.0000000000000000e+00  3.2015903472218665e-01 -5.2282819747654925e-04 0.0000000000000000e+00  -5.2877085152576797e-01 2.5221296815718824e-01 0.0000000000000000e+00  2.2925763042243397e-01 -4.3056743205950661e-02 0.0000000000000000e+00  7.0920495243631276e-01 2.5676425577324541e-01 0.0000000000000000e+00  -2.4963016790519763e-01 5.2172502794227327e-01 0.0000000000000000e+00  -2.7387829855791684e-01 4.0064279657321378e-01 0.0000000000000000e+00  5.1382999815616470e-01 -7.9827645530378508e-02 0.0000000000000000e+00  3.4751439026964920e-01 3.1926101547914503e-03 0.0000000000000000e+00  7.3582483895078765e-01 -1.6036316916991769e-01 0.0000000000000000e+00  5.6693917798538840e-01 -1.0533593154193299e-01 0.0000000000000000e+00  3.9711544807048099e-01 4.8864005179590227e-02 0.0000000000000000e+00  3.2895893177339031e-01 1.0580162643942741e-01 0.0000000000000000e+00  7.8180276255024850e-01 1.1693353458294077e-01 0.0000000000000000e+00  2.5844455008834971e-01 -1.4051988505142232e-01 0.0000000000000000e+00  3.1219242289561244e-01 -3.8404900256984180e-03 0.0000000000000000e+00  3.1793959737060723e-01 -3.6179215937796548e-05 0.0000000000000000e+00  9.6590433079430452e-02 5.9164192670527782e-01 0.0000000000000000e+00  1.8512185227366532e-01 -1.0420208174947031e-01 0.0000000000000000e+00  -4.9782722806340586e-02 -2.5615995174223993e-01 0.0000000000000000e+00  8.1927857418615757e-01 -7.5361884697248124e-02 0.0000000000000000e+00  3.0334218304638683e-01 -5.6119085603555750e-03 0.0000000000000000e+00  1.7406459708073285e-01 1.0363489309654407e-01 0.0000000000000000e+00  9.8784167491615527e-01 -2.6102364181452627e-02 0.0000000000000000e+00  5.1820852462109579e-01 2.8579964946660197e-01 0.0000000000000000e+00  3.2867907356860260e-01 -5.6396452470307604e-04 0.0000000000000000e+00  2.7396354322864735e-01 -3.3083126231161990e-02 0.0000000000000000e+00  9.7661034134432712e-01 3.5996111231984720e-02 0.0000000000000000e+00  9.8265908891037246e-01 2.7611179574419175e-02 0.0000000000000000e+00  1.2694610169513423e-01 1.7795784844848003e-01 0.0000000000000000e+00  4.4229955887867234e-01 1.0578611439930172e-01 0.0000000000000000e+00  6.4993244891751678e-01 -2.3740551786929839e-01 0.0000000000000000e+00  3.3278935942286081e-01 -1.2314846959224808e-02 0.0000000000000000e+00  9.7899133661001914e-01 -3.3064749363144255e-02 0.0000000000000000e+00  3.8485058653922533e-01 -3.2889341506751081e-02 0.0000000000000000e+00  2.7086877550603811e-01 -4.2666343286031846e-02 0.0000000000000000e+00  4.4616389844056537e-01 -4.2324773305456836e-02 0.0000000000000000e+00  -1.9485079674796621e-01 -2.9647732699304136e-01 0.0000000000000000e+00  -2.8174238087104597e-01 -4.6742525822332442e-01 0.0000000000000000e+00  1.5200270582583855e-01 3.0109928762344217e-02 0.0000000000000000e+00  3.7506281223125987e-01 -8.9936931552718508e-02 0.0000000000000000e+00  3.3756757668836945e-01 8.4593277367729647e-04 0.0000000000000000e+00  -5.5816366384289939e-01 -6.6643441941227857e-02 0.0000000000000000e+00  3.3241913258726857e-01 -8.0910660845896504e-03 0.0000000000000000e+00  3.3853644846352465e-01 -3.0836558104100045e-02 0.0000000000000000e+00  9.9121360813147019e-01 -3.1470405621349698e-04 0.0000000000000000e+00  1.2084551191107164e-01 1.1571063737969359e-01 0.0000000000000000e+00  9.0473257677998142e-01 -4.7757005999937180e-02 0.0000000000000000e+00  3.4966349493469401e-01 3.2144917713084566e-02 0.0000000000000000e+00  9.2304044166878274e-01 3.1272887997993659e-02 0.0000000000000000e+00  9.7073504201368635e-02 -3.1833286962426273e-02 0.0000000000000000e+00  2.5565919293274880e-01 4.3023181206643786e-02 0.0000000000000000e+00  3.8106650994183788e-01 -4.9936390918104173e-01 0.0000000000000000e+00  6.6085901813960302e-01 -3.7275100003791595e-01 0.0000000000000000e+00  9.3559802679908011e-01 -5.3103100762961472e-02 0.0000000000000000e+00  3.2544386895869204e-01 1.8565429198936925e-01 0.0000000000000000e+00  3.1504908586747188e-01 -1.2774731612501559e-03 0.0000000000000000e+00  2.5375054059066471e-01 -1.8759083245057243e-01 0.0000000000000000e+00  -6.8339701920251061e-01 -5.4483584181900515e-03 0.0000000000000000e+00  3.3713389308085179e-01 -1.8493312155624717e-01 0.0000000000000000e+00  -3.4324690060086943e-01 -1.5504813136942858e-01 0.0000000000000000e+00  3.8226142298514398e-01 -1.2258810396720349e-02 0.0000000000000000e+00  9.7897608068767727e-01 1.9012098447934719e-02 0.0000000000000000e+00  9.0091348219944412e-01 7.7072926688240312e-02 0.0000000000000000e+00  5.9637945747506427e-01 3.6555034659563873e-01 0.0000000000000000e+00  7.6134007908213597e-01 2.0985131330313969e-01 0.0000000000000000e+00  9.9170317046967926e-01 -1.567159494974227