<?xml version="1.0"?>
<VTKFile type="UnstructuredGrid"  version="0.1"  >
<UnstructuredGrid>
<Piece  NumberOfPoints="622" NumberOfCells="1116">
<Points>
<DataArray  type="Float64"  NumberOfComponents="3"  format="ascii">-6 -2 0  -6 2 0  6 2 0  6 -2 0  -2.8 0 0  -1.2 0 0  -5.500000000001853 -2 0  -5.000000000003705 -2 0  -4.500000000005556 -2 0  -4.000000000007409 -2 0  -3.50000000000926 -2 0  -3.000000000011112 -2 0  -2.500000000012963 -2 0  -2.000000000014814 -2 0  -1.500000000016665 -2 0  -1.000000000018516 -2 0  -0.5000000000203677 -2 0  -2.204547655537681e-11 -2 0  0.4999999999796305 -2 0  0.9999999999814779 -2 0  1.499999999983327 -2 0  1.999999999985175 -2 0  2.499999999987029 -2 0  2.999999999988882 -2 0  3.499999999990735 -2 0  3.999999999992589 -2 0  4.49999999999444 -2 0  4.999999999996293 -2 0  5.499999999998147 -2 0  6 -1.500000000001387 0  6 -1.000000000002774 0  6 -0.5000000000041616 0  6 -5.505595979116151e-12 0  6 0.4999999999958384 0  6 0.9999999999972258 0  6 1.499999999998613 0  5.500000000001853 2 0  5.000000000003705 2 0  4.500000000005556 2 0  4.000000000007409 2 0  3.50000000000926 2 0  3.000000000011112 2 0  2.500000000012963 2 0  2.000000000014814 2 0  1.500000000016665 2 0  1.000000000018516 2 0  0.5000000000203677 2 0  2.204547655537681e-11 2 0  -0.4999999999796305 2 0  -0.9999999999814779 2 0  -1.499999999983327 2 0  -1.999999999985175 2 0  -2.499999999987029 2 0  -2.999999999988882 2 0  -3.499999999990735 2 0  -3.999999999992589 2 0  -4.49999999999444 2 0  -4.999999999996293 2 0  -5.499999999998147 2 0  -6 1.500000000001387 0  -6 1.000000000002774 0  -6 0.5000000000041616 0  -6 5.505595979116151e-12 0  -6 -0.4999999999958384 0  -6 -0.9999999999972258 0  -6 -1.499999999998613 0  -2.796147781337886 -0.07841371226233997 0  -2.784628224322852 -0.1560722576115546 0  -2.765552268586196 -0.2322277418021561 0  -2.739103626009626 -0.30614674589063 0  -2.705537011479457 -0.3771173894593519 0  -2.665175689843037 -0.4444561864141836 0  -2.618408362691456 -0.5075146273293722 0  -2.565685424950688 -0.5656854249477874 0  -2.507514627332613 -0.6184083626887972 0  -2.444456186417533 -0.6651756898407991 0  -2.377117389462776 -0.7055370114776264 0  -2.306146745894456 -0.7391036260080417 0  -2.232227741806235 -0.7655522685849585 0  -2.15607225761588 -0.784628224321992 0  -2.078413712266957 -0.7961477813374315 0  -2.000000000003407 -0.7999999999999998 0  -1.921586287739523 -0.7961477813380696 0  -1.843927742389945 -0.7846282243231506 0  -1.767772258198879 -0.7655522685865098 0  -1.693853254109962 -0.7391036260098718 0  -1.622882610540873 -0.7055370114795768 0  -1.555543813585629 -0.6651756898429115 0  -1.49248537267008 -0.6184083626910072 0  -1.434314575051535 -0.5656854249500112 0  -1.381591637310384 -0.5075146273316149 0  -1.334824310158267 -0.4444561864161359 0  -1.294462988521423 -0.3771173894609975 0  -1.260896373990956 -0.3061467458920351 0  -1.234447731414138 -0.2322277418032578 0  -1.215371775677287 -0.156072257612254 0  -1.203852218662147 -0.07841371226267954 0  -1.203852218662115 0.07841371226235888 0  -1.215371775677132 0.156072257611478 0  -1.234447731413795 0.232227741802127 0  -1.260896373990353 0.3061467458905811 0  -1.294462988520456 0.3771173894591898 0  -1.334824310156812 0.444456186413959 0  -1.381591637308413 0.5075146273292139 0  -1.434314575049147 0.5656854249476236 0  -1.492485372667197 0.6184083626886415 0  -1.555543813582104 0.6651756898405565 0  -1.62288261053673 0.7055370114773629 0  -1.693853254105125 0.7391036260078683 0  -1.767772258193396 0.7655522685848468 0  -1.84392774238373 0.7846282243219146 0  -1.921586287732977 0.7961477813374253 0  -1.999999999996558 0.8 0  -2.078413712260516 0.7961477813380661 0  -2.156072257610207 0.7846282243231205 0  -2.232227741801178 0.7655522685864928 0  -2.306146745890059 0.7391036260098632 0  -2.377117389459098 0.7055370114795929 0  -2.444456186414405 0.6651756898428894 0  -2.50751462732998 0.6184083626909587 0  -2.565685424948549 0.5656854249499272 0  -2.61840836268981 0.5075146273313792 0  -2.665175689841831 0.4444561864159886 0  -2.705537011478692 0.3771173894607835 0  -2.739103626009108 0.3061467458918818 0  -2.76555226858589 0.2322277418031643 0  -2.784628224322724 0.1560722576122001 0  -2.796147781337853 0.07841371226267957 0  0.6720367661319522 0.1312687487860887 0  -4.389489086394485 0.3544472233398538 0  -3.816221554046232 -0.6097988664512611 0  -3.552726516474419 0.9342959806851625 0  -0.2536610443052337 0.8162373554653355 0  -0.1843238977799138 -0.6649951410982842 0  -3.613359951620445 0.1086570650978273 0  -3.146954163409593 -1.074378179335012 0  -0.4255266515582625 0.07734891565364931 0  -0.9413731612925856 1.168014724254929 0  -2.947764053183577 1.200029094390044 0  -0.8319852757411681 -1.058626838707328 0  2.675418990747819 -1.137325591670363e-12 0  -2.602010642259726 -1.287560129290477 0  -2.334401622060699 1.335006108940604 0  -1.524718496628401 1.32890816230333 0  -1.369813829148039 -1.26145150481762 0  -3.294065651892671 -0.4630240940010318 0  -2.072749204569071 -1.388981302138359 0  -0.7546165313921411 0.5601792161340381 0  -3.224879719581335 0.4382689715877901 0  -0.7073137361349826 -0.4625305410752652 0  4.326242945813966 0.3262429458150917 0  -3.187880061217201 0.07437712177460168 0  -2.94792024259867 0.7030255657465158 0  -2.678809277907896 0.9152683582887104 0  -4.911626141576894 -0.5700186648601188 0  -2.980647654587299 -0.5685006168686053 0  -2.769438919323564 -0.8202775213660614 0  -1.936950121013948 1.220669938589229 0  -0.8971643766260747 0.2762459428874499 0  -0.8760878018253068 -0.06836412137772707 0  -1.086827485441145 0.6772548942594016 0  -1.31355927028917 0.8808768148414213 0  -1.034266382739347 -0.5912381576649568 0  -1.241594139118264 -0.836771920085274 0  1.667161185638911 -0.6367996576268693 0  1.778189842800902 0.7191719841256095 0  -3.065106827511819 -0.266795371500425 0  3.714311277362231 -0.7275465302492842 0  -1.728329421201519 -1.09954751473283 0  4.870629493137888 -0.7325040699186681 0  -3.024707894719303 0.2567561910603656 0  -4.375540207252226 1.228935704312058 0  -2.272077148001781 -1.086192861256262 0  3.351408248797803 0.9175227128129597 0  -5.141847419540732 0.8091901960109126 0  0.5769368286199241 1.111816231125821 0  0.7411482978492124 -1.079569101289617 0  -1.074013749991219 0.430231207546053 0  -1.04664573441257 -0.3358382377487088 0  -2.439195336951085 0.9224778883059374 0  -2.902607676587358 0.4360473765597399 0  -1.629450174302152 1.035617385691805 0  -2.146859933125513 1.032375363966426 0  2.587625196444542 -0.9999926061845814 0  -2.529286802957126 -0.8830616815739111 0  -1.493798157676768 -0.8794705728517196 0  -1.932158132383022 -1.026681566564148 0  -4.09956359341904 -0.1372485582942864 0  5.055802064425553 1.050933510837308 0  -4.413659685984891 -1.207626391697488 0  -4.961411026474009 0.1201902955685026 0  -3.771151641156835 -1.303594976371997 0  -3.001321503506133 -0.04919177107285733 0  -3.881733605683001 0.5124517634812003 0  -0.1971627317996802 -1.336445372382849 0  -2.742825060181767 0.6732573903735507 0  2.520439429199979 1.129372838786189 0  -1.026326428668429 0.1384273198437734 0  -2.779290004861729 -0.5844691722665721 0  -2.895095740820851 -0.4261289730972082 0  -1.275682076193407 0.6630703172777138 0  0.1045291701958869 0.3433373435296472 0  5.175560481258801 0.0608563229178163 0  -1.211574424201636 -0.5847362589868093 0  -1.85847006217035 1.007917631940711 0  4.152535916385823 1.131901130662082 0  -1.04878257200685 -0.1253529988863012 0  1.432836501626023 0.05634449574318775 0  3.560672936003603 0.01188897172456759 0  -3.351823698389408 -0.1821329582635926 0  -5.145153363200735 -1.259166339382508 0  0.03473693330309885 -0.1724947236036572 0  -4.377830921337186 -0.6172564090242229 0  -0.3943750728122595 1.410897156959435 0  -1.661073679471639 -0.9342065000197183 0  -1.49086536677686 0.8331714487926741 0  -2.584486130952032 0.7871482690034864 0  4.270535884593893 -1.259607924744415 0  -1.757417028085795 -1.505182186951191 0  -3.430586920998477 1.425579221231371 0  -2.917598827418652 -0.2298465409534677 0  -2.328978331116049 -0.9300959620317677 0  -2.148543000691344 -0.9751580214451921 0  1.002654111360038 -0.4521702885594788 0  -4.628651824080903 -0.1127998710567241 0  -2.948904386702482 0.1555943115410545 0  0.4165242577134774 -0.5629432649478633 0  -3.698137692471105 -0.3173027948676715 0  -3.491400684461791 -0.7926319721650269 0  -0.3844454817728994 0.4680628696134375 0  -3.207830713508533 0.9778749990559993 0  3.229909751065535 -1.326302454776001 0  5.330007715336748 -1.312905173261894 0  -2.649214054100534 -0.713314536278899 0  1.342022964818772 -1.328315248672686 0  -2.556460939068198 1.202372762828344 0  -0.3497819755044588 -0.3080427614060888 0  -4.928440909495523 1.387622767511967 0  1.309170811945155 1.337467055109531 0  -1.352031940181449 -0.7151198948590243 0  -0.6132855723904642 0.9519045895123004 0  4.266838388406324 -0.3707357390867402 0  -3.834389788310238 1.371594798941152 0  -1.187890214580146 0.4851427123079557 0  -1.109118888029193 0.3185947354467283 0  0.1837819401738013 1.234799661476361 0  1.108165254659559 0.6237223548284967 0  -0.5266600156584522 -0.8113991260886402 0  -4.643822083543982 0.7834094684931707 0  -1.146235204666366 -0.4027330721405781 0  2.049029845992713 -0.2664662499985428 0  2.002665761665898 -1.328912351029848 0  -1.678783505586872 0.8978832065736417 0  -2.049499525232052 0.9483890761590005 0  -2.229972236535132 0.9181006323151361 0  -3.033763529945482 -1.54240494280775 0  -3.562344364746847 0.5622550957224539 0  -5.524396842903405 -0.2709714867672603 0  -0.9710982764034376 -1.549038578476423 0  3.058819320130555 -0.5375106252795963 0  -4.170365230099585 0.7342553699229977 0  -1.045878746461381 -8.187420622554697e-05 0  -1.864822945411764 -0.9219031104673102 0  -0.6251005091687033 -0.2120650512195049 0  2.317562622406059 0.4886417799113238 0  -0.6674371191466613 0.1483993095055008 0  -2.705757882979874 1.609712312948224 0  
[...]
<PointData  Vectors="f_22"> 
<DataArray  type="Float64"  Name="f_22"  NumberOfComponents="3" format="ascii">0.0000000000000000e+00 0.0000000000000000e+00 0.0000000000000000e+00  0.0000000000000000e+00 0.0000000000000000e+00 0.0000000000000000e+00  0.0000000000000000e+00 0.0000000000000000e+00 0.0000000000000000e+00  0.0000000000000000e+00 0.0000000000000000e+00 0.0000000000000000e+00  9.9999997868059909e-01 0.0000000000000000e+00 0.0000000000000000e+00  9.9999997868059909e-01 0.0000000000000000e+00 0.0000000000000000e+00  0.0000000000000000e+00 0.0000000000000000e+00 0.0000000000000000e+00  0.0000000000000000e+00 0.0000000000000000e+00 0.0000000000000000e+00  0.0000000000000000e+00 0.0000000000000000e+00 0.0000000000000000e+00  0.0000000000000000e+00 0.0000000000000000e+00 0.0000000000000000e+00  0.0000000000000000e+00 0.0000000000000000e+00 0.0000000000000000e+00  0.0000000000000000e+00 0.0000000000000000e+00 0.0000000000000000e+00  0.0000000000000000e+00 0.0000000000000000e+00 0.0000000000000000e+00  0.0000000000000000e+00 0.0000000000000000e+00 0.0000000000000000e+00  0.0000000000000000e+00 0.0000000000000000e+00 0.0000000000000000e+00  0.0000000000000000e+00 0.0000000000000000e+00 0.0000000000000000e+00  0.0000000000000000e+00 0.0000000000000000e+00 0.0000000000000000e+00  0.0000000000000000e+00 0.0000000000000000e+00 0.0000000000000000e+00  0.0000000000000000e+00 0.0000000000000000e+00 0.0000000000000000e+00  0.0000000000000000e+00 0.0000000000000000e+00 0.0000000000000000e+00  0.0000000000000000e+00 0.0000000000000000e+00 0.0000000000000000e+00  0.0000000000000000e+00 0.0000000000000000e+00 0.0000000000000000e+00  0.0000000000000000e+00 0.0000000000000000e+00 0.0000000000000000e+00  0.0000000000000000e+00 0.0000000000000000e+00 0.0000000000000000e+00  0.0000000000000000e+00 0.0000000000000000e+00 0.0000000000000000e+00  0.0000000000000000e+00 0.0000000000000000e+00 0.0000000000000000e+00  0.0000000000000000e+00 0.0000000000000000e+00 0.0000000000000000e+00  0.0000000000000000e+00 0.0000000000000000e+00 0.0000000000000000e+00  0.0000000000000000e+00 0.0000000000000000e+00 0.0000000000000000e+00  2.2994093421169184e-01 2.1977960981143995e-04 0.0000000000000000e+00  2.4021335944622732e-01 2.0873465783108471e-04 0.0000000000000000e+00  2.4090817761463379e-01 1.3364486303019564e-05 0.0000000000000000e+00  2.4092817756833101e-01 1.1752976250544326e-05 0.0000000000000000e+00  2.4086999907692339e-01 -1.3890225201375418e-05 0.0000000000000000e+00  2.4063219761044133e-01 1.8305367866685058e-04 0.0000000000000000e+00  2.3075273602287147e-01 -3.4344073469026970e-04 0.0000000000000000e+00  0.0000000000000000e+00 0.0000000000000000e+00 0.0000000000000000e+00  0.0000000000000000e+00 0.0000000000000000e+00 0.0000000000000000e+00  0.0000000000000000e+00 0.0000000000000000e+00 0.0000000000000000e+00  0.0000000000000000e+00 0.0000000000000000e+00 0.0000000000000000e+00  0.0000000000000000e+00 0.0000000000000000e+00 0.0000000000000000e+00  0.0000000000000000e+00 0.0000000000000000e+00 0.0000000000000000e+00  0.0000000000000000e+00 0.0000000000000000e+00 0.0000000000000000e+00  0.0000000000000000e+00 0.0000000000000000e+00 0.0000000000000000e+00  0.0000000000000000e+00 0.0000000000000000e+00 0.0000000000000000e+00  0.0000000000000000e+00 0.0000000000000000e+00 0.0000000000000000e+00  0.0000000000000000e+00 0.0000000000000000e+00 0.0000000000000000e+00  0.0000000000000000e+00 0.0000000000000000e+00 0.0000000000000000e+00  0.0000000000000000e+00 0.0000000000000000e+00 0.0000000000000000e+00  0.0000000000000000e+00 0.0000000000000000e+00 0.0000000000000000e+00  0.0000000000000000e+00 0.0000000000000000e+00 0.0000000000000000e+00  0.0000000000000000e+00 0.0000000000000000e+00 0.0000000000000000e+00  0.0000000000000000e+00 0.0000000000000000e+00 0.0000000000000000e+00  0.0000000000000000e+00 0.0000000000000000e+00 0.0000000000000000e+00  0.0000000000000000e+00 0.0000000000000000e+00 0.0000000000000000e+00  0.0000000000000000e+00 0.0000000000000000e+00 0.0000000000000000e+00  0.0000000000000000e+00 0.0000000000000000e+00 0.0000000000000000e+00  0.0000000000000000e+00 0.0000000000000000e+00 0.0000000000000000e+00  0.0000000000000000e+00 0.0000000000000000e+00 0.0000000000000000e+00  2.2669837006818255e-01 -7.7474631975996675e-04 0.0000000000000000e+00  2.3855662127804950e-01 -8.7025766805652691e-04 0.0000000000000000e+00  2.4538905460741284e-01 -9.7927690664136946e-04 0.0000000000000000e+00  2.4863236889117729e-01 5.5302651452604316e-04 0.0000000000000000e+00  2.4603329419423528e-01 5.5516353614414125e-04 0.0000000000000000e+00  2.3915317825773219e-01 9.6480071822958847e-04 0.0000000000000000e+00  2.2638770545345391e-01 7.0864677797751287e-04 0.0000000000000000e+00  9.9999997868059909e-01 0.0000000000000000e+00 0.0000000000000000e+00  9.9999997868059909e-01 0.0000000000000000e+00 0.0000000000000000e+00  9.9999997868059909e-01 0.0000000000000000e+00 0.0000000000000000e+00  9.9999997868059909e-01 0.0000000000000000e+00 0.0000000000000000e+00  9.9999997868059909e-01 0.0000000000000000e+00 0.0000000000000000e+00  9.9999997868059909e-01 0.0000000000000000e+00 0.0000000000000000e+00  9.9999997868059909e-01 0.0000000000000000e+00 0.0000000000000000e+00  9.9999997868059909e-01 0.0000000000000000e+00 0.0000000000000000e+00  9.9999997868059909e-01 0.0000000000000000e+00 0.0000000000000000e+00  9.9999997868059909e-01 0.0000000000000000e+00 0.0000000000000000e+00  9.9999997868059909e-01 0.0000000000000000e+00 0.0000000000000000e+00  9.9999997868059909e-01 0.0000000000000000e+00 0.0000000000000000e+00  9.9999997868059909e-01 0.0000000000000000e+00 0.0000000000000000e+00  9.9999997868059909e-01 0.0000000000000000e+00 0.0000000000000000e+00  9.9999997868059909e-01 0.0000000000000000e+00 0.0000000000000000e+00  9.9999997868059909e-01 0.0000000000000000e+00 0.0000000000000000e+00  9.9999997868059909e-01 0.0000000000000000e+00 0.0000000000000000e+00  9.9999997868059909e-01 0.0000000000000000e+00 0.0000000000000000e+00  9.9999997868059909e-01 0.0000000000000000e+00 0.0000000000000000e+00  9.9999997868059909e-01 0.0000000000000000e+00 0.0000000000000000e+00  9.9999997868059909e-01 0.0000000000000000e+00 0.0000000000000000e+00  9.9999997868059909e-01 0.0000000000000000e+00 0.0000000000000000e+00  9.9999997868059909e-01 0.0000000000000000e+00 0.0000000000000000e+00  9.9999997868059909e-01 0.0000000000000000e+00 0.0000000000000000e+00  9.9999997868059909e-01 0.0000000000000000e+00 0.0000000000000000e+00  9.9999997868059909e-01 0.0000000000000000e+00 0.0000000000000000e+00  9.9999997868059909e-01 0.0000000000000000e+00 0.0000000000000000e+00  9.9999997868059909e-01 0.0000000000000000e+00 0.0000000000000000e+00  9.9999997868059909e-01 0.0000000000000000e+00 0.0000000000000000e+00  9.9999997868059909e-01 0.0000000000000000e+00 0.0000000000000000e+00  9.9999997868059909e-01 0.0000000000000000e+00 0.0000000000000000e+00  9.9999997868059909e-01 0.0000000000000000e+00 0.0000000000000000e+00  9.9999997868059909e-01 0.0000000000000000e+00 0.0000000000000000e+00  9.9999997868059909e-01 0.0000000000000000e+00 0.0000000000000000e+00  9.9999997868059909e-01 0.0000000000000000e+00 0.0000000000000000e+00  9.9999997868059909e-01 0.0000000000000000e+00 0.0000000000000000e+00  9.9999997868059909e-01 0.0000000000000000e+00 0.0000000000000000e+00  9.9999997868059909e-01 0.0000000000000000e+00 0.0000000000000000e+00  9.9999997868059909e-01 0.0000000000000000e+00 0.0000000000000000e+00  9.9999997868059909e-01 0.0000000000000000e+00 0.0000000000000000e+00  9.9999997868059909e-01 0.0000000000000000e+00 0.0000000000000000e+00  9.9999997868059909e-01 0.0000000000000000e+00 0.0000000000000000e+00  9.9999997868059909e-01 0.0000000000000000e+00 0.0000000000000000e+00  9.9999997868059909e-01 0.0000000000000000e+00 0.0000000000000000e+00  9.9999997868059909e-01 0.0000000000000000e+00 0.0000000000000000e+00  9.9999997868059909e-01 0.0000000000000000e+00 0.0000000000000000e+00  9.9999997868059909e-01 0.0000000000000000e+00 0.0000000000000000e+00  9.9999997868059909e-01 0.0000000000000000e+00 0.0000000000000000e+00  9.9999997868059909e-01 0.0000000000000000e+00 0.0000000000000000e+00  9.9999997868059909e-01 0.0000000000000000e+00 0.0000000000000000e+00  9.9999997868059909e-01 0.0000000000000000e+00 0.0000000000000000e+00  9.9999997868059909e-01 0.0000000000000000e+00 0.0000000000000000e+00  9.9999997868059909e-01 0.0000000000000000e+00 0.0000000000000000e+00  9.9999997868059909e-01 0.0000000000000000e+00 0.0000000000000000e+00  9.9999997868059909e-01 0.0000000000000000e+00 0.0000000000000000e+00  9.9999997868059909e-01 0.0000000000000000e+00 0.0000000000000000e+00  9.9999997868059909e-01 0.0000000000000000e+00 0.0000000000000000e+00  9.9999997868059909e-01 0.0000000000000000e+00 0.0000000000000000e+00  9.9999997868059909e-01 0.0000000000000000e+00 0.0000000000000000e+00  9.9999997868059909e-01 0.0000000000000000e+00 0.0000000000000000e+00  9.9999997868059909e-01 0.0000000000000000e+00 0.0000000000000000e+00  9.9999997868059909e-01 0.0000000000000000e+00 0.0000000000000000e+00  4.6037246289113931e-01 4.1160726668219412e-02 0.0000000000000000e+00  2.6323955868747484e-01 -1.5083174483097643e-02 0.0000000000000000e+00  2.7067914561314088e-01 6.8272523420493184e-02 0.0000000000000000e+00  2.1359270152709514e-01 -1.0495371009720515e-01 0.0000000000000000e+00  4.0253445325222970e-01 2.4805664953723208e-01 0.0000000000000000e+00  5.1218148341359593e-01 -2.0572956012533439e-01 0.0000000000000000e+00  3.5493669231914443e-01 -2.4825576290445999e-02 0.0000000000000000e+00  1.0584753448210020e-01 1.7137555229896484e-01 0.0000000000000000e+00  8.2297691757462343e-01 2.4338506024658053e-02 0.0000000000000000e+00  -4.2687658495441795e-02 3.0509675268747849e-01 0.0000000000000000e+00  3.4987992093822736e-03 -1.7148883268460505e-01 0.0000000000000000e+00  1.9833455964072547e-01 -3.3701416130689982e-01 0.0000000000000000e+00  2.4734462096955995e-01 -7.2625687779846981e-05 0.0000000000000000e+00  -1.9464129753805487e-01 2.9493877181170081e-01 0.0000000000000000e+00  -4.0032250475242731e-01 -3.5651708291310480e-01 0.0000000000000000e+00  -5.9299237760529777e-01 -1.2837455813128704e-01 0.0000000000000000e+00  -4.4289306357298347e-01 -2.7092239016977493e-02 0.0000000000000000e+00  3.5678809932880939e-01 1.7814902995831441e-01 0.0000000000000000e+00  -5.3227684615022741e-01 3.4321200936009200e-01 0.0000000000000000e+00  7.6385047664018102e-01 1.7095515330477792e-01 0.0000000000000000e+00  3.8074909927582651e-01 -2.0292873411162016e-01 0.0000000000000000e+00  8.0376406247472953e-01 -1.3969017132890882e-01 0.0000000000000000e+00  2.4119680076093580e-01 1.7594817831538008e-04 0.0000000000000000e+00  5.2474463957908135e-01 -4.8423074863290304e-02 0.0000000000000000e+00  2.0391519140518308e-01 -3.8705877300326286e-01 0.0000000000000000e+00  -8.4749052087283824e-02 -4.9046372294346657e-01 0.0000000000000000e+00  2.4773281080300377e-01 7.7628505918287500e-03 0.0000000000000000e+00  3.3070153550348513e-01 3.7955356012824853e-01 0.0000000000000000e+00  4.1906989311263090e-02 4.8904982891815385e-01 0.0000000000000000e+00  -4.8244700844783001e-01 -3.6749500552308345e-01 0.0000000000000000e+00  9.2987619945500555e-01 6.5519170396036844e-02 0.0000000000000000e+00  9.5273504998892489e-01 -1.6782990333670152e-02 0.0000000000000000e+00  8.3354454208386464e-01 1.6198707182644873e-01 0.0000000000000000e+00  6.3661902940893966e-01 1.4084340874277090e-01 0.0000000000000000e+00  8.5452097577803243e-01 -1.4057667887026479e-01 0.0000000000000000e+00  7.2958180877942203e-01 -1.6731246328807520e-01 0.0000000000000000e+00  2.5606502434941492e-01 -3.5013626247630159e-02 0.0000000000000000e+00  2.5001921893569651e-01 3.0773223315997193e-02 0.0000000000000000e+00  5.4046454173493363e-01 2.2021609329224931e-01 0.0000000000000000e+00  2.4112174101898395e-01 -9.9011733754247660e-04 0.0000000000000000e+00  -2.2874801941236317e-01 2.2273068766180296e-01 0.0000000000000000e+00  2.4081828997189408e-01 -1.4791372509968825e-04 0.0000000000000000e+00  5.7207963812273421e-01 -2.4008416735919538e-01 0.0000000000000000e+00  2.2615191311732427e-01 -1.9939111795454992e-02 0.0000000000000000e+00  -3.7096521536540661e-01 4.9305481703092952e-01 0.0000000000000000e+00  2.3990626729236020e-01 1.7682512033331793e-03 0.0000000000000000e+00  2.4246792603607120e-01 -4.6633078800860407e-03 0.0000000000000000e+00  1.2590962438341435e-01 1.9441728326263491e-01 0.0000000000000000e+00  1.6629705185252786e-01 -1.6625817709078436e-01 0.0000000000000000e+00  9.3325110897458696e-01 7.8369434855999801e-02 0.0000000000000000e+00  9.5316686293186081e-01 -5.9605620669027679e-02 0.0000000000000000e+00  -2.3657228353730533e-01 -5.8476359965026492e-01 0.0000000000000000e+00  4.7811034322471402e-01 -4.1518575065969354e-01 0.0000000000000000e+00  2.6296931617986350e-03 -1.1545777296984021e-01 0.0000000000000000e+00  -3.5291892712217965e-01 -4.3558416174467246e-01 0.0000000000000000e+00  2.3859344575227956e-01 -7.4059531696236795e-03 0.0000000000000000e+00  -1.3537999115926330e-01 5.8161915470257619e-01 0.0000000000000000e+00  6.1896798699322941e-01 -3.9552856830804700e-02 0.0000000000000000e+00  -2.0912675276338463e-01 2.9714144810240295e-01 0.0000000000000000e+00  2.8586399181031752e-01 1.1693126247569361e-02 0.0000000000000000e+00  2.3944683443258891e-01 3.6384642907541883e-04 0.0000000000000000e+00  2.2716627747520696e-01 1.9653648488971644e-02 0.0000000000000000e+00  2.5253433560041627e-01 -1.3224883688344553e-03 0.0000000000000000e+00  1.9032743655830109e-01 4.5185337897706367e-02 0.0000000000000000e+00  6.8932839544080504e-01 4.1479574355556312e-02 0.0000000000000000e+00  2.7884039835958524e-01 -5.4021687557693467e-02 0.0000000000000000e+00  -1.2867171291516472e-01 -2.6578054557318564e-01 0.0000000000000000e+00  1.6800469544318705e-01 -5.7566935449460277e-01 0.0000000000000000e+00  2.3498735477016466e-01 8.2325440051655135e-03 0.0000000000000000e+00  9.7928945440206761e-01 2.2043921104438324e-02 0.0000000000000000e+00  2.9908690864466536e-01 5.6220448067057371e-01 0.0000000000000000e+00  5.0254996438608224e-01 4.0707412680942828e-01 0.0000000000000000e+00  9.2003524216730437e-01 9.0034368457123745e-02 0.0000000000000000e+00  5.9908209623209963e-01 1.0963115062140601e-01 0.0000000000000000e+00  2.4098070394781074e-01 7.0640680899060633e-05 0.0000000000000000e+00  9.2249727358938816e-01 -8.6490153275954121e-02 0.0000000000000000e+00  -1.1345629060746737e-01 -2.3788120686587419e-01 0.0000000000000000e+00  2.3901142149236929e-01 5.2140433063925702e-04 0.0000000000000000e+00  9.8403630421297295e-01 -1.8852475930986410e-02 0.0000000000000000e+00  3.0053571028743781e-01 6.8832691295153733e-03 0.0000000000000000e+00  2.4223389412264912e-01 -2.4324711366496985e-05 0.0000000000000000e+00  4.2673865456433674e-01 7.5253063160413691e-02 0.0000000000000000e+00  2.3413746012942119e-01 4.4885284466208170e-03 0.0000000000000000e+00  6.6173922078352565e-01 -5.5287299211508746e-02 0.0000000000000000e+00  2.5358055152391201e-01 2.3619736792818660e-02 0.0000000000000000e+00  -2.2233174526737276e-01 2.6403119527563246e-01 0.0000000000000000e+00  3.1001638617196803e-01 5.3295776935851878e-02 0.0000000000000000e+00  7.7818193496867782e-01 5.0023748852229245e-02 0.0000000000000000e+00  -6.4932270039176024e-02 -6.5049329838454006e-01 0.0000000000000000e+00  2.3847851122562011e-01 -3.4795852491768011e-04 0.0000000000000000e+00  -7.2120646378444309e-01 2.3544791675829452e-01 0.0000000000000000e+00  1.4005712728465478e-01 -4.5990609588812924e-02 0.0000000000000000e+00  6.8225658389521437e-01 2.8449227948437000e-01 0.0000000000000000e+00  -2.8256587705153274e-01 5.4421210181207269e-01 0.0000000000000000e+00  -2.9744510849970895e-01 4.1318436425403759e-01 0.0000000000000000e+00  3.2390870210918399e-01 -9.4735669207750076e-02 0.0000000000000000e+00  2.5923651828505206e-01 3.6635497630974896e-03 0.0000000000000000e+00  7.0791427936288687e-01 -1.8258128790827841e-01 0.0000000000000000e+00  4.1564875176981564e-01 -1.6839040124149740e-01 0.0000000000000000e+00  3.1995174382160158e-01 5.7111778931880582e-02 0.0000000000000000e+00  2.3871495446615412e-01 1.2874023774548632e-01 0.0000000000000000e+00  6.9725115380153180e-01 1.4988615536008879e-01 0.0000000000000000e+00  1.4868721176828922e-01 -1.7871821654328574e-01 0.0000000000000000e+00  2.3619795101233543e-01 -1.7243688052648335e-03 0.0000000000000000e+00  2.3801200370192330e-01 -1.1334430482842851e-04 0.0000000000000000e+00  5.9861009743847504e-02 6.5104264054583827e-01 0.0000000000000000e+00  1.9155980041106555e-01 -4.8497153131602896e-02 0.0000000000000000e+00  -2.3513494049459085e-01 -3.6182114755419348e-01 0.0000000000000000e+00  7.5175503715655345e-01 -9.9078141887783425e-02 0.0000000000000000e+00  2.2864793918291468e-01 -5.9848883368307654e-03 0.0000000000000000e+00  1.8610115679616199e-01 4.9917346585240892e-02 0.0000000000000000e+00  9.2912398432720733e-01 -7.8765365350021987e-02 0.0000000000000000e+00  3.2817934072256649e-01 3.0219956894869526e-01 0.0000000000000000e+00  2.4124237983804431e-01 -2.6403300930150542e-04 0.0000000000000000e+00  1.9102315881947488e-01 -3.4514731160501619e-02 0.0000000000000000e+00  9.4781487568009615e-01 6.3764953789080064e-02 0.0000000000000000e+00  9.7063290392545498e-01 4.3080033013283718e-02 0.0000000000000000e+00  1.5188940395855109e-02 2.5114144974539360e-01 0.0000000000000000e+00  2.8318256999031322e-01 9.5224973328540005e-02 0.0000000000000000e+00  4.7573598285779817e-01 -2.5963854080474902e-01 0.0000000000000000e+00  2.4486705209634357e-01 -1.5028778867417249e-02 0.0000000000000000e+00  9.6071026943005222e-01 -5.3598353008701999e-02 0.0000000000000000e+00  2.5887171767253747e-01 -9.2403923694645076e-03 0.0000000000000000e+00  2.2352330559621689e-01 -1.4858785429429493e-02 0.0000000000000000e+00  4.5429317982487655e-01 -2.8894382808900436e-02 0.0000000000000000e+00  -2.0916405883103809e-01 -3.0650310891401927e-01 0.0000000000000000e+00  -3.0801639015686333e-01 -4.8262456003864451e-01 0.0000000000000000e+00  5.7372161298826593e-02 4.4185679054259262e-02 0.0000000000000000e+00  2.9263021121227234e-01 -1.0804938285118536e-01 0.0000000000000000e+00  2.4766761967582809e-01 7.3751669454797471e-04 0.0000000000000000e+00  -5.9651856478473930e-01 -1.3711512204958762e-01 0.0000000000000000e+00  2.4268483853291509e-01 -2.6264339038989826e-03 0.0000000000000000e+00  2.5056907114084420e-01 -3.6417084778910723e-02 0.0000000000000000e+00  9.8704818957370588e-01 -1.6162957211675810e-04 0.0000000000000000e+00  1.3304854372189906e-01 1.1918688065134159e-01 0.0000000000000000e+00  8.6460134472227024e-01 -6.3497728010258117e-02 0.0000000000000000e+00  2.4867605142366403e-01 9.4143439061673707e-03 0.0000000000000000e+00  8.9049444719662552e-01 4.3114882537494251e-02 0.0000000000000000e+00  -2.2035066055807774e-02 -6.4167525054750832e-02 0.0000000000000000e+00  2.1648112067162725e-01 1.5382940330259888e-02 0.0000000000000000e+00  3.3879564769983095e-01 -5.6570616282086461e-01 0.0000000000000000e+00  6.3053916516946495e-01 -4.1687410470708497e-01 0.0000000000000000e+00  9.0389110330899658e-01 -7.2358556769184970e-02 0.0000000000000000e+00  2.4106165029571316e-01 2.2725298030113611e-01 0.0000000000000000e+00  2.3513715085091533e-01 -1.0531754675153560e-03 0.0000000000000000e+00  1.0847378768569456e-01 -2.6411861740989734e-01 0.0000000000000000e+00  -7.4099540584853563e-01 6.5959799232028563e-02 0.0000000000000000e+00  2.5140036546309052e-01 -2.2575483610301095e-01 0.0000000000000000e+00  -5.6647887439959888e-01 -1.5658947148326524e-01 0.0000000000000000e+00  3.0152019944370123e-01 -1.5279618578331992e-02 0.0000000000000000e+00  9.2282940191365737e-01 7.3775409834905145e-02 0.0000000000000000e+00  8.5165654180451478e-01 1.0359383044706166e-01 0.0000000000000000e+00  5.7283595237676610e-01 4.0869976943030606e-01 0.0000000000000000e+00  5.7932952263613169e-01 2.8212722275214663e-01 0.0000000000000000e+00  9.8683418178775484e-01 -2.355290853745