<?xml version="1.0"?>
<VTKFile type="UnstructuredGrid"  version="0.1"  >
<UnstructuredGrid>
<Piece  NumberOfPoints="622" NumberOfCells="1116">
<Points>
<DataArray  type="Float64"  NumberOfComponents="3"  format="ascii">-6 -2 0  -6 2 0  6 2 0  6 -2 0  -2.8 0 0  -1.2 0 0  -5.500000000001853 -2 0  -5.000000000003705 -2 0  -4.500000000005556 -2 0  -4.000000000007409 -2 0  -3.50000000000926 -2 0  -3.000000000011112 -2 0  -2.500000000012963 -2 0  -2.000000000014814 -2 0  -1.500000000016665 -2 0  -1.000000000018516 -2 0  -0.5000000000203677 -2 0  -2.204547655537681e-11 -2 0  0.4999999999796305 -2 0  0.9999999999814779 -2 0  1.499999999983327 -2 0  1.999999999985175 -2 0  2.499999999987029 -2 0  2.999999999988882 -2 0  3.499999999990735 -2 0  3.999999999992589 -2 0  4.49999999999444 -2 0  4.999999999996293 -2 0  5.499999999998147 -2 0  6 -1.500000000001387 0  6 -1.000000000002774 0  6 -0.5000000000041616 0  6 -5.505595979116151e-12 0  6 0.4999999999958384 0  6 0.9999999999972258 0  6 1.499999999998613 0  5.500000000001853 2 0  5.000000000003705 2 0  4.500000000005556 2 0  4.000000000007409 2 0  3.50000000000926 2 0  3.000000000011112 2 0  2.500000000012963 2 0  2.000000000014814 2 0  1.500000000016665 2 0  1.000000000018516 2 0  0.5000000000203677 2 0  2.204547655537681e-11 2 0  -0.4999999999796305 2 0  -0.9999999999814779 2 0  -1.499999999983327 2 0  -1.999999999985175 2 0  -2.499999999987029 2 0  -2.999999999988882 2 0  -3.499999999990735 2 0  -3.999999999992589 2 0  -4.49999999999444 2 0  -4.999999999996293 2 0  -5.499999999998147 2 0  -6 1.500000000001387 0  -6 1.000000000002774 0  -6 0.5000000000041616 0  -6 5.505595979116151e-12 0  -6 -0.4999999999958384 0  -6 -0.9999999999972258 0  -6 -1.499999999998613 0  -2.796147781337886 -0.07841371226233997 0  -2.784628224322852 -0.1560722576115546 0  -2.765552268586196 -0.2322277418021561 0  -2.739103626009626 -0.30614674589063 0  -2.705537011479457 -0.3771173894593519 0  -2.665175689843037 -0.4444561864141836 0  -2.618408362691456 -0.5075146273293722 0  -2.565685424950688 -0.5656854249477874 0  -2.507514627332613 -0.6184083626887972 0  -2.444456186417533 -0.6651756898407991 0  -2.377117389462776 -0.7055370114776264 0  -2.306146745894456 -0.7391036260080417 0  -2.232227741806235 -0.7655522685849585 0  -2.15607225761588 -0.784628224321992 0  -2.078413712266957 -0.7961477813374315 0  -2.000000000003407 -0.7999999999999998 0  -1.921586287739523 -0.7961477813380696 0  -1.843927742389945 -0.7846282243231506 0  -1.767772258198879 -0.7655522685865098 0  -1.693853254109962 -0.7391036260098718 0  -1.622882610540873 -0.7055370114795768 0  -1.555543813585629 -0.6651756898429115 0  -1.49248537267008 -0.6184083626910072 0  -1.434314575051535 -0.5656854249500112 0  -1.381591637310384 -0.5075146273316149 0  -1.334824310158267 -0.4444561864161359 0  -1.294462988521423 -0.3771173894609975 0  -1.260896373990956 -0.3061467458920351 0  -1.234447731414138 -0.2322277418032578 0  -1.215371775677287 -0.156072257612254 0  -1.203852218662147 -0.07841371226267954 0  -1.203852218662115 0.07841371226235888 0  -1.215371775677132 0.156072257611478 0  -1.234447731413795 0.232227741802127 0  -1.260896373990353 0.3061467458905811 0  -1.294462988520456 0.3771173894591898 0  -1.334824310156812 0.444456186413959 0  -1.381591637308413 0.5075146273292139 0  -1.434314575049147 0.5656854249476236 0  -1.492485372667197 0.6184083626886415 0  -1.555543813582104 0.6651756898405565 0  -1.62288261053673 0.7055370114773629 0  -1.693853254105125 0.7391036260078683 0  -1.767772258193396 0.7655522685848468 0  -1.84392774238373 0.7846282243219146 0  -1.921586287732977 0.7961477813374253 0  -1.999999999996558 0.8 0  -2.078413712260516 0.7961477813380661 0  -2.156072257610207 0.7846282243231205 0  -2.232227741801178 0.7655522685864928 0  -2.306146745890059 0.7391036260098632 0  -2.377117389459098 0.7055370114795929 0  -2.444456186414405 0.6651756898428894 0  -2.50751462732998 0.6184083626909587 0  -2.565685424948549 0.5656854249499272 0  -2.61840836268981 0.5075146273313792 0  -2.665175689841831 0.4444561864159886 0  -2.705537011478692 0.3771173894607835 0  -2.739103626009108 0.3061467458918818 0  -2.76555226858589 0.2322277418031643 0  -2.784628224322724 0.1560722576122001 0  -2.796147781337853 0.07841371226267957 0  0.6720367661319522 0.1312687487860887 0  -4.389489086394485 0.3544472233398538 0  -3.816221554046232 -0.6097988664512611 0  -3.552726516474419 0.9342959806851625 0  -0.2536610443052337 0.8162373554653355 0  -0.1843238977799138 -0.6649951410982842 0  -3.613359951620445 0.1086570650978273 0  -3.146954163409593 -1.074378179335012 0  -0.4255266515582625 0.07734891565364931 0  -0.9413731612925856 1.168014724254929 0  -2.947764053183577 1.200029094390044 0  -0.8319852757411681 -1.058626838707328 0  2.675418990747819 -1.137325591670363e-12 0  -2.602010642259726 -1.287560129290477 0  -2.334401622060699 1.335006108940604 0  -1.524718496628401 1.32890816230333 0  -1.369813829148039 -1.26145150481762 0  -3.294065651892671 -0.4630240940010318 0  -2.072749204569071 -1.388981302138359 0  -0.7546165313921411 0.5601792161340381 0  -3.224879719581335 0.4382689715877901 0  -0.7073137361349826 -0.4625305410752652 0  4.326242945813966 0.3262429458150917 0  -3.187880061217201 0.07437712177460168 0  -2.94792024259867 0.7030255657465158 0  -2.678809277907896 0.9152683582887104 0  -4.911626141576894 -0.5700186648601188 0  -2.980647654587299 -0.5685006168686053 0  -2.769438919323564 -0.8202775213660614 0  -1.936950121013948 1.220669938589229 0  -0.8971643766260747 0.2762459428874499 0  -0.8760878018253068 -0.06836412137772707 0  -1.086827485441145 0.6772548942594016 0  -1.31355927028917 0.8808768148414213 0  -1.034266382739347 -0.5912381576649568 0  -1.241594139118264 -0.836771920085274 0  1.667161185638911 -0.6367996576268693 0  1.778189842800902 0.7191719841256095 0  -3.065106827511819 -0.266795371500425 0  3.714311277362231 -0.7275465302492842 0  -1.728329421201519 -1.09954751473283 0  4.870629493137888 -0.7325040699186681 0  -3.024707894719303 0.2567561910603656 0  -4.375540207252226 1.228935704312058 0  -2.272077148001781 -1.086192861256262 0  3.351408248797803 0.9175227128129597 0  -5.141847419540732 0.8091901960109126 0  0.5769368286199241 1.111816231125821 0  0.7411482978492124 -1.079569101289617 0  -1.074013749991219 0.430231207546053 0  -1.04664573441257 -0.3358382377487088 0  -2.439195336951085 0.9224778883059374 0  -2.902607676587358 0.4360473765597399 0  -1.629450174302152 1.035617385691805 0  -2.146859933125513 1.032375363966426 0  2.587625196444542 -0.9999926061845814 0  -2.529286802957126 -0.8830616815739111 0  -1.493798157676768 -0.8794705728517196 0  -1.932158132383022 -1.026681566564148 0  -4.09956359341904 -0.1372485582942864 0  5.055802064425553 1.050933510837308 0  -4.413659685984891 -1.207626391697488 0  -4.961411026474009 0.1201902955685026 0  -3.771151641156835 -1.303594976371997 0  -3.001321503506133 -0.04919177107285733 0  -3.881733605683001 0.5124517634812003 0  -0.1971627317996802 -1.336445372382849 0  -2.742825060181767 0.6732573903735507 0  2.520439429199979 1.129372838786189 0  -1.026326428668429 0.1384273198437734 0  -2.779290004861729 -0.5844691722665721 0  -2.895095740820851 -0.4261289730972082 0  -1.275682076193407 0.6630703172777138 0  0.1045291701958869 0.3433373435296472 0  5.175560481258801 0.0608563229178163 0  -1.211574424201636 -0.5847362589868093 0  -1.85847006217035 1.007917631940711 0  4.152535916385823 1.131901130662082 0  -1.04878257200685 -0.1253529988863012 0  1.432836501626023 0.05634449574318775 0  3.560672936003603 0.01188897172456759 0  -3.351823698389408 -0.1821329582635926 0  -5.145153363200735 -1.259166339382508 0  0.03473693330309885 -0.1724947236036572 0  -4.377830921337186 -0.6172564090242229 0  -0.3943750728122595 1.410897156959435 0  -1.661073679471639 -0.9342065000197183 0  -1.49086536677686 0.8331714487926741 0  -2.584486130952032 0.7871482690034864 0  4.270535884593893 -1.259607924744415 0  -1.757417028085795 -1.505182186951191 0  -3.430586920998477 1.425579221231371 0  -2.917598827418652 -0.2298465409534677 0  -2.328978331116049 -0.9300959620317677 0  -2.148543000691344 -0.9751580214451921 0  1.002654111360038 -0.4521702885594788 0  -4.628651824080903 -0.1127998710567241 0  -2.948904386702482 0.1555943115410545 0  0.4165242577134774 -0.5629432649478633 0  -3.698137692471105 -0.3173027948676715 0  -3.491400684461791 -0.7926319721650269 0  -0.3844454817728994 0.4680628696134375 0  -3.207830713508533 0.9778749990559993 0  3.229909751065535 -1.326302454776001 0  5.330007715336748 -1.312905173261894 0  -2.649214054100534 -0.713314536278899 0  1.342022964818772 -1.328315248672686 0  -2.556460939068198 1.202372762828344 0  -0.3497819755044588 -0.3080427614060888 0  -4.928440909495523 1.387622767511967 0  1.309170811945155 1.337467055109531 0  -1.352031940181449 -0.7151198948590243 0  -0.6132855723904642 0.9519045895123004 0  4.266838388406324 -0.3707357390867402 0  -3.834389788310238 1.371594798941152 0  -1.187890214580146 0.4851427123079557 0  -1.109118888029193 0.3185947354467283 0  0.1837819401738013 1.234799661476361 0  1.108165254659559 0.6237223548284967 0  -0.5266600156584522 -0.8113991260886402 0  -4.643822083543982 0.7834094684931707 0  -1.146235204666366 -0.4027330721405781 0  2.049029845992713 -0.2664662499985428 0  2.002665761665898 -1.328912351029848 0  -1.678783505586872 0.8978832065736417 0  -2.049499525232052 0.9483890761590005 0  -2.229972236535132 0.9181006323151361 0  -3.033763529945482 -1.54240494280775 0  -3.562344364746847 0.5622550957224539 0  -5.524396842903405 -0.2709714867672603 0  -0.9710982764034376 -1.549038578476423 0  3.058819320130555 -0.5375106252795963 0  -4.170365230099585 0.7342553699229977 0  -1.045878746461381 -8.187420622554697e-05 0  -1.864822945411764 -0.9219031104673102 0  -0.6251005091687033 -0.2120650512195049 0  2.317562622406059 0.4886417799113238 0  -0.6674371191466613 0.1483993095055008 0  -2.705757882979874 1.609712312948224 0  
[...]
<PointData  Vectors="f_22"> 
<DataArray  type="Float64"  Name="f_22"  NumberOfComponents="3" format="ascii">0.0000000000000000e+00 0.0000000000000000e+00 0.0000000000000000e+00  0.0000000000000000e+00 0.0000000000000000e+00 0.0000000000000000e+00  0.0000000000000000e+00 0.0000000000000000e+00 0.0000000000000000e+00  0.0000000000000000e+00 0.0000000000000000e+00 0.0000000000000000e+00  9.9999997514845718e-01 0.0000000000000000e+00 0.0000000000000000e+00  9.9999997514845718e-01 0.0000000000000000e+00 0.0000000000000000e+00  0.0000000000000000e+00 0.0000000000000000e+00 0.0000000000000000e+00  0.0000000000000000e+00 0.0000000000000000e+00 0.0000000000000000e+00  0.0000000000000000e+00 0.0000000000000000e+00 0.0000000000000000e+00  0.0000000000000000e+00 0.0000000000000000e+00 0.0000000000000000e+00  0.0000000000000000e+00 0.0000000000000000e+00 0.0000000000000000e+00  0.0000000000000000e+00 0.0000000000000000e+00 0.0000000000000000e+00  0.0000000000000000e+00 0.0000000000000000e+00 0.0000000000000000e+00  0.0000000000000000e+00 0.0000000000000000e+00 0.0000000000000000e+00  0.0000000000000000e+00 0.0000000000000000e+00 0.0000000000000000e+00  0.0000000000000000e+00 0.0000000000000000e+00 0.0000000000000000e+00  0.0000000000000000e+00 0.0000000000000000e+00 0.0000000000000000e+00  0.0000000000000000e+00 0.0000000000000000e+00 0.0000000000000000e+00  0.0000000000000000e+00 0.0000000000000000e+00 0.0000000000000000e+00  0.0000000000000000e+00 0.0000000000000000e+00 0.0000000000000000e+00  0.0000000000000000e+00 0.0000000000000000e+00 0.0000000000000000e+00  0.0000000000000000e+00 0.0000000000000000e+00 0.0000000000000000e+00  0.0000000000000000e+00 0.0000000000000000e+00 0.0000000000000000e+00  0.0000000000000000e+00 0.0000000000000000e+00 0.0000000000000000e+00  0.0000000000000000e+00 0.0000000000000000e+00 0.0000000000000000e+00  0.0000000000000000e+00 0.0000000000000000e+00 0.0000000000000000e+00  0.0000000000000000e+00 0.0000000000000000e+00 0.0000000000000000e+00  0.0000000000000000e+00 0.0000000000000000e+00 0.0000000000000000e+00  0.0000000000000000e+00 0.0000000000000000e+00 0.0000000000000000e+00  3.0713391815472924e-01 1.2587739648217341e-04 0.0000000000000000e+00  3.3951779926253556e-01 1.5484156754117529e-04 0.0000000000000000e+00  3.4137623869956624e-01 -2.5398951235816810e-05 0.0000000000000000e+00  3.4149688186339189e-01 -1.4022317420143693e-05 0.0000000000000000e+00  3.4139231727314007e-01 -9.3393873475849591e-06 0.0000000000000000e+00  3.4019947520115823e-01 2.2427333197296316e-04 0.0000000000000000e+00  3.0772372937617254e-01 -5.2395135181854656e-04 0.0000000000000000e+00  0.0000000000000000e+00 0.0000000000000000e+00 0.0000000000000000e+00  0.0000000000000000e+00 0.0000000000000000e+00 0.0000000000000000e+00  0.0000000000000000e+00 0.0000000000000000e+00 0.0000000000000000e+00  0.0000000000000000e+00 0.0000000000000000e+00 0.0000000000000000e+00  0.0000000000000000e+00 0.0000000000000000e+00 0.0000000000000000e+00  0.0000000000000000e+00 0.0000000000000000e+00 0.0000000000000000e+00  0.0000000000000000e+00 0.0000000000000000e+00 0.0000000000000000e+00  0.0000000000000000e+00 0.0000000000000000e+00 0.0000000000000000e+00  0.0000000000000000e+00 0.0000000000000000e+00 0.0000000000000000e+00  0.0000000000000000e+00 0.0000000000000000e+00 0.0000000000000000e+00  0.0000000000000000e+00 0.0000000000000000e+00 0.0000000000000000e+00  0.0000000000000000e+00 0.0000000000000000e+00 0.0000000000000000e+00  0.0000000000000000e+00 0.0000000000000000e+00 0.0000000000000000e+00  0.0000000000000000e+00 0.0000000000000000e+00 0.0000000000000000e+00  0.0000000000000000e+00 0.0000000000000000e+00 0.0000000000000000e+00  0.0000000000000000e+00 0.0000000000000000e+00 0.0000000000000000e+00  0.0000000000000000e+00 0.0000000000000000e+00 0.0000000000000000e+00  0.0000000000000000e+00 0.0000000000000000e+00 0.0000000000000000e+00  0.0000000000000000e+00 0.0000000000000000e+00 0.0000000000000000e+00  0.0000000000000000e+00 0.0000000000000000e+00 0.0000000000000000e+00  0.0000000000000000e+00 0.0000000000000000e+00 0.0000000000000000e+00  0.0000000000000000e+00 0.0000000000000000e+00 0.0000000000000000e+00  0.0000000000000000e+00 0.0000000000000000e+00 0.0000000000000000e+00  3.0012925830110632e-01 -1.2732303711731176e-03 0.0000000000000000e+00  3.3686034226149458e-01 -9.8017118229260652e-04 0.0000000000000000e+00  3.4747872458317475e-01 -1.4952613571891766e-03 0.0000000000000000e+00  3.5329991497586832e-01 1.3470722960463833e-03 0.0000000000000000e+00  3.4872119872437862e-01 3.4447302717976352e-04 0.0000000000000000e+00  3.3843369748975460e-01 7.2207323858387699e-04 0.0000000000000000e+00  2.9992447719124721e-01 9.8866537746805302e-04 0.0000000000000000e+00  9.9999997514845718e-01 0.0000000000000000e+00 0.0000000000000000e+00  9.9999997514845718e-01 0.0000000000000000e+00 0.0000000000000000e+00  9.9999997514845718e-01 0.0000000000000000e+00 0.0000000000000000e+00  9.9999997514845718e-01 0.0000000000000000e+00 0.0000000000000000e+00  9.9999997514845718e-01 0.0000000000000000e+00 0.0000000000000000e+00  9.9999997514845718e-01 0.0000000000000000e+00 0.0000000000000000e+00  9.9999997514845718e-01 0.0000000000000000e+00 0.0000000000000000e+00  9.9999997514845718e-01 0.0000000000000000e+00 0.0000000000000000e+00  9.9999997514845718e-01 0.0000000000000000e+00 0.0000000000000000e+00  9.9999997514845718e-01 0.0000000000000000e+00 0.0000000000000000e+00  9.9999997514845718e-01 0.0000000000000000e+00 0.0000000000000000e+00  9.9999997514845718e-01 0.0000000000000000e+00 0.0000000000000000e+00  9.9999997514845718e-01 0.0000000000000000e+00 0.0000000000000000e+00  9.9999997514845718e-01 0.0000000000000000e+00 0.0000000000000000e+00  9.9999997514845718e-01 0.0000000000000000e+00 0.0000000000000000e+00  9.9999997514845718e-01 0.0000000000000000e+00 0.0000000000000000e+00  9.9999997514845718e-01 0.0000000000000000e+00 0.0000000000000000e+00  9.9999997514845718e-01 0.0000000000000000e+00 0.0000000000000000e+00  9.9999997514845718e-01 0.0000000000000000e+00 0.0000000000000000e+00  9.9999997514845718e-01 0.0000000000000000e+00 0.0000000000000000e+00  9.9999997514845718e-01 0.0000000000000000e+00 0.0000000000000000e+00  9.9999997514845718e-01 0.0000000000000000e+00 0.0000000000000000e+00  9.9999997514845718e-01 0.0000000000000000e+00 0.0000000000000000e+00  9.9999997514845718e-01 0.0000000000000000e+00 0.0000000000000000e+00  9.9999997514845718e-01 0.0000000000000000e+00 0.0000000000000000e+00  9.9999997514845718e-01 0.0000000000000000e+00 0.0000000000000000e+00  9.9999997514845718e-01 0.0000000000000000e+00 0.0000000000000000e+00  9.9999997514845718e-01 0.0000000000000000e+00 0.0000000000000000e+00  9.9999997514845718e-01 0.0000000000000000e+00 0.0000000000000000e+00  9.9999997514845718e-01 0.0000000000000000e+00 0.0000000000000000e+00  9.9999997514845718e-01 0.0000000000000000e+00 0.0000000000000000e+00  9.9999997514845718e-01 0.0000000000000000e+00 0.0000000000000000e+00  9.9999997514845718e-01 0.0000000000000000e+00 0.0000000000000000e+00  9.9999997514845718e-01 0.0000000000000000e+00 0.0000000000000000e+00  9.9999997514845718e-01 0.0000000000000000e+00 0.0000000000000000e+00  9.9999997514845718e-01 0.0000000000000000e+00 0.0000000000000000e+00  9.9999997514845718e-01 0.0000000000000000e+00 0.0000000000000000e+00  9.9999997514845718e-01 0.0000000000000000e+00 0.0000000000000000e+00  9.9999997514845718e-01 0.0000000000000000e+00 0.0000000000000000e+00  9.9999997514845718e-01 0.0000000000000000e+00 0.0000000000000000e+00  9.9999997514845718e-01 0.0000000000000000e+00 0.0000000000000000e+00  9.9999997514845718e-01 0.0000000000000000e+00 0.0000000000000000e+00  9.9999997514845718e-01 0.0000000000000000e+00 0.0000000000000000e+00  9.9999997514845718e-01 0.0000000000000000e+00 0.0000000000000000e+00  9.9999997514845718e-01 0.0000000000000000e+00 0.0000000000000000e+00  9.9999997514845718e-01 0.0000000000000000e+00 0.0000000000000000e+00  9.9999997514845718e-01 0.0000000000000000e+00 0.0000000000000000e+00  9.9999997514845718e-01 0.0000000000000000e+00 0.0000000000000000e+00  9.9999997514845718e-01 0.0000000000000000e+00 0.0000000000000000e+00  9.9999997514845718e-01 0.0000000000000000e+00 0.0000000000000000e+00  9.9999997514845718e-01 0.0000000000000000e+00 0.0000000000000000e+00  9.9999997514845718e-01 0.0000000000000000e+00 0.0000000000000000e+00  9.9999997514845718e-01 0.0000000000000000e+00 0.0000000000000000e+00  9.9999997514845718e-01 0.0000000000000000e+00 0.0000000000000000e+00  9.9999997514845718e-01 0.0000000000000000e+00 0.0000000000000000e+00  9.9999997514845718e-01 0.0000000000000000e+00 0.0000000000000000e+00  9.9999997514845718e-01 0.0000000000000000e+00 0.0000000000000000e+00  9.9999997514845718e-01 0.0000000000000000e+00 0.0000000000000000e+00  9.9999997514845718e-01 0.0000000000000000e+00 0.0000000000000000e+00  9.9999997514845718e-01 0.0000000000000000e+00 0.0000000000000000e+00  9.9999997514845718e-01 0.0000000000000000e+00 0.0000000000000000e+00  9.9999997514845718e-01 0.0000000000000000e+00 0.0000000000000000e+00  6.4976495251409927e-01 2.2567092320528760e-02 0.0000000000000000e+00  3.6431986861564464e-01 -1.2129810421492483e-02 0.0000000000000000e+00  3.6997404681481344e-01 5.7304588670365753e-02 0.0000000000000000e+00  3.2506894925187346e-01 -8.7851737502894600e-02 0.0000000000000000e+00  5.7815248631343286e-01 2.2260490342033734e-01 0.0000000000000000e+00  6.5506874899259138e-01 -1.6606738878663646e-01 0.0000000000000000e+00  4.4060540763203454e-01 -1.9721505489806803e-02 0.0000000000000000e+00  2.3787246671626477e-01 1.3042354610668649e-01 0.0000000000000000e+00  8.7898523783247640e-01 1.6580947805636924e-02 0.0000000000000000e+00  7.7720462489665909e-02 1.4392160028990053e-01 0.0000000000000000e+00  1.6430525200586737e-01 -1.1854978693764685e-01 0.0000000000000000e+00  3.5971351326491913e-01 -2.2378753800004891e-01 0.0000000000000000e+00  3.6600122490083059e-01 -1.6276840517343287e-04 0.0000000000000000e+00  1.7221980674045879e-02 1.6870480238163213e-01 0.0000000000000000e+00  -1.4840499197612231e-01 -2.4517925423290765e-01 0.0000000000000000e+00  -4.0182872202488584e-01 -2.3948734638559493e-01 0.0000000000000000e+00  -2.7664076213788741e-01 1.4531032213068720e-01 0.0000000000000000e+00  4.3869850056441834e-01 1.4938980135307561e-01 0.0000000000000000e+00  -3.1126205446147281e-01 2.8648636172035136e-01 0.0000000000000000e+00  8.8221062707889564e-01 1.2324638516756527e-01 0.0000000000000000e+00  4.6122011403090935e-01 -1.6760973993062042e-01 0.0000000000000000e+00  8.8841238322158933e-01 -1.0153234838733514e-01 0.0000000000000000e+00  3.4211257144939350e-01 5.5969339109550700e-04 0.0000000000000000e+00  5.8485666349704568e-01 -3.9463688617267824e-02 0.0000000000000000e+00  3.0407355661584690e-01 -3.0985100792114390e-01 0.0000000000000000e+00  4.9758629207353959e-02 -3.7086251307393420e-01 0.0000000000000000e+00  3.5019371707522567e-01 6.5403628419119352e-03 0.0000000000000000e+00  4.0456223842057659e-01 3.1653508262939595e-01 0.0000000000000000e+00  1.4527582653968202e-01 3.7964150261953578e-01 0.0000000000000000e+00  -3.3328978283885141e-01 -3.4595923825191532e-01 0.0000000000000000e+00  9.5893859928689373e-01 4.2972526998657230e-02 0.0000000000000000e+00  9.6964053199865730e-01 -1.1593433054038116e-02 0.0000000000000000e+00  9.6618808077436891e-01 8.4499442992588783e-02 0.0000000000000000e+00  6.8254067566571175e-01 2.2675756124855811e-02 0.0000000000000000e+00  9.5610085558567159e-01 -8.0271242315215763e-02 0.0000000000000000e+00  8.0624135359523408e-01 -5.1916051064424817e-02 0.0000000000000000e+00  3.9620093869010503e-01 -9.5234996323148302e-02 0.0000000000000000e+00  3.6560973744019437e-01 9.8290871593357101e-02 0.0000000000000000e+00  5.9460638798071652e-01 1.9122472714685412e-01 0.0000000000000000e+00  3.4152446614718085e-01 -3.0218443073002500e-03 0.0000000000000000e+00  -1.2577611338929087e-01 2.2752136637371859e-01 0.0000000000000000e+00  3.4120734699212724e-01 -3.1331578758850406e-04 0.0000000000000000e+00  6.2386621346013527e-01 -2.0553142511878233e-01 0.0000000000000000e+00  3.2259745619069974e-01 -1.8591324480973871e-02 0.0000000000000000e+00  -2.6163516543699167e-01 4.3187892444689285e-01 0.0000000000000000e+00  3.3770610583375488e-01 5.9873071181562407e-03 0.0000000000000000e+00  3.4309387998283963e-01 -4.2906822283172823e-03 0.0000000000000000e+00  2.4795350854702289e-01 1.4560220927582571e-01 0.0000000000000000e+00  2.6835377085441259e-01 -1.4337914674998348e-01 0.0000000000000000e+00  9.7032352116694642e-01 4.5047604712197133e-02 0.0000000000000000e+00  9.7525381088937058e-01 -3.5985834132842086e-02 0.0000000000000000e+00  -1.4689471694805359e-01 -5.1078284790515427e-01 0.0000000000000000e+00  5.3363347195093491e-01 -3.5414373258421217e-01 0.0000000000000000e+00  7.2125381852718717e-02 -1.5826563251599665e-01 0.0000000000000000e+00  -2.7920267965589746e-01 -4.0370614303694702e-01 0.0000000000000000e+00  3.2894433031464954e-01 -2.6928581022612537e-02 0.0000000000000000e+00  -5.5157719191004956e-02 4.9879760442746118e-01 0.0000000000000000e+00  6.1820555609761674e-01 1.4109640332764172e-02 0.0000000000000000e+00  -1.7134174453027895e-01 2.8448455545148593e-01 0.0000000000000000e+00  3.8330026190728450e-01 9.9819193080774183e-03 0.0000000000000000e+00  3.3849046126814264e-01 5.0559529915922827e-04 0.0000000000000000e+00  3.2405130204711974e-01 1.7774897193952262e-02 0.0000000000000000e+00  3.5618221474361933e-01 -9.0695081022872895e-04 0.0000000000000000e+00  2.9060986017266283e-01 4.1526037525317701e-02 0.0000000000000000e+00  7.2648882676903870e-01 3.7552287821684648e-02 0.0000000000000000e+00  3.7709718971647960e-01 -4.4708567270070915e-02 0.0000000000000000e+00  -1.8481519479309455e-02 -2.1962621424874393e-01 0.0000000000000000e+00  2.4459782560069351e-01 -4.7862801615010531e-01 0.0000000000000000e+00  3.1831867769592015e-01 2.8457754051775124e-02 0.0000000000000000e+00  9.8741977906729694e-01 1.3775535508940251e-02 0.0000000000000000e+00  3.5297321774028473e-01 4.8482872427194701e-01 0.0000000000000000e+00  5.5170190689577969e-01 3.5065575088210243e-01 0.0000000000000000e+00  9.9977046563818250e-01 2.9059353127156864e-02 0.0000000000000000e+00  7.1731154725113011e-01 6.9528997967474998e-02 0.0000000000000000e+00  3.4163299785540541e-01 1.0678650794173760e-04 0.0000000000000000e+00  9.8585452219459280e-01 -3.7346136245673643e-02 0.0000000000000000e+00  -7.8230820508816315e-02 -2.3268260166425553e-01 0.0000000000000000e+00  3.3642798306574878e-01 1.0375499772930709e-03 0.0000000000000000e+00  9.9025049424828548e-01 -1.2001648497769336e-02 0.0000000000000000e+00  5.2383667079570329e-01 9.4974029574237465e-03 0.0000000000000000e+00  3.4565531389203552e-01 1.2365691932439819e-04 0.0000000000000000e+00  5.0033895835477671e-01 6.4602142557431130e-02 0.0000000000000000e+00  3.2665407947572855e-01 4.4033439960221915e-03 0.0000000000000000e+00  7.6646583677511537e-01 -3.6737008042267698e-02 0.0000000000000000e+00  3.5516391335139058e-01 1.9732742293452014e-02 0.0000000000000000e+00  -1.2027866934121988e-01 2.2091157358566113e-01 0.0000000000000000e+00  3.0649592708934958e-01 7.6392329470520756e-02 0.0000000000000000e+00  7.9023059896994174e-01 -8.0938260354756868e-04 0.0000000000000000e+00  1.1504072337440484e-02 -5.6376920304345257e-01 0.0000000000000000e+00  3.3224324723406484e-01 -6.0387545705812922e-04 0.0000000000000000e+00  -4.8989230073990919e-01 2.4698539443917344e-01 0.0000000000000000e+00  2.3914181845929028e-01 -4.4926479719060247e-02 0.0000000000000000e+00  7.1722815931400852e-01 2.4993479308400779e-01 0.0000000000000000e+00  -2.3599008743549738e-01 5.0667514266791480e-01 0.0000000000000000e+00  -2.6780381712786511e-01 3.9225602615506072e-01 0.0000000000000000e+00  5.3585118047634195e-01 -7.3006450787748617e-02 0.0000000000000000e+00  3.6176542327193567e-01 3.2034002877120724e-03 0.0000000000000000e+00  7.4309483418992073e-01 -1.5571492209573301e-01 0.0000000000000000e+00  5.8293808470889197e-01 -9.9800006738575670e-02 0.0000000000000000e+00  4.1106005853520783e-01 4.8348178422428167e-02 0.0000000000000000e+00  3.4425967068893665e-01 1.0533551158184797e-01 0.0000000000000000e+00  7.9579036812993353e-01 1.1509509047055251e-01 0.0000000000000000e+00  2.7534015863624101e-01 -1.4083211527598410e-01 0.0000000000000000e+00  3.2282564974150801e-01 -4.6297715989256335e-03 0.0000000000000000e+00  3.2971699533542537e-01 -3.0988654282999743e-05 0.0000000000000000e+00  1.1625711179536667e-01 5.7059131691920750e-01 0.0000000000000000e+00  1.8249310991101569e-01 -1.0759273138215480e-01 0.0000000000000000e+00  -2.5279856960909119e-02 -2.3560875709566431e-01 0.0000000000000000e+00  8.2890709759123171e-01 -7.3454165226665147e-02 0.0000000000000000e+00  3.1395948070371632e-01 -5.8540186734897951e-03 0.0000000000000000e+00  1.7160258281065277e-01 1.0652764323385726e-01 0.0000000000000000e+00  9.9412953446882424e-01 -1.8488766829453704e-02 0.0000000000000000e+00  5.4588975348631430e-01 2.7858814040260166e-01 0.0000000000000000e+00  3.4217486297791000e-01 -6.7367096869369841e-04 0.0000000000000000e+00  2.8466478396301670e-01 -3.4186340607619700e-02 0.0000000000000000e+00  9.8115276281825492e-01 3.1468535252957994e-02 0.0000000000000000e+00  9.8463754892903332e-01 2.5153613245633030e-02 0.0000000000000000e+00  1.4339911362152244e-01 1.7500759898527576e-01 0.0000000000000000e+00  4.6564996481820070e-01 9.7116845262835358e-02 0.0000000000000000e+00  6.8202441241525236e-01 -2.3366275126413846e-01 0.0000000000000000e+00  3.4638424642727983e-01 -1.2531447220060169e-02 0.0000000000000000e+00  9.8203909789677224e-01 -2.9592139420964298e-02 0.0000000000000000e+00  4.1192152874922694e-01 -3.7570668364165311e-02 0.0000000000000000e+00  2.7201735650465941e-01 -5.0344948237207657e-02 0.0000000000000000e+00  4.3885291751298194e-01 -4.2834244742671890e-02 0.0000000000000000e+00  -1.9464875180323291e-01 -2.9130438758744420e-01 0.0000000000000000e+00  -2.7281201816344586e-01 -4.5699675396204492e-01 0.0000000000000000e+00  1.5837701719643610e-01 3.1616365362210290e-02 0.0000000000000000e+00  3.8972297030953423e-01 -8.9156521182749374e-02 0.0000000000000000e+00  3.5161846337886427e-01 8.7674869352735230e-04 0.0000000000000000e+00  -5.4991360989070659e-01 -4.9720119385158933e-02 0.0000000000000000e+00  3.4677142988757781e-01 -1.0062739176729354e-02 0.0000000000000000e+00  3.5242021403127388e-01 -3.0928304362947613e-02 0.0000000000000000e+00  9.9186997444327130e-01 -2.6810513778357219e-04 0.0000000000000000e+00  1.1404031625830134e-01 1.1395944757454893e-01 0.0000000000000000e+00  9.1091915871444429e-01 -4.5638427500482345e-02 0.0000000000000000e+00  3.6787408243885922e-01 4.0418585617522547e-02 0.0000000000000000e+00  9.2788610218689749e-01 2.9998769648935730e-02 0.0000000000000000e+00  1.0182244121000648e-01 -2.8807755304003195e-02 0.0000000000000000e+00  2.5523451128993635e-01 5.0348564712348921e-02 0.0000000000000000e+00  3.9973476694555404e-01 -4.8537076330245355e-01 0.0000000000000000e+00  6.7112377796720690e-01 -3.6223334948325442e-01 0.0000000000000000e+00  9.4085675937593816e-01 -5.0104145270092444e-02 0.0000000000000000e+00  3.4221126321215756e-01 1.8355117978604749e-01 0.0000000000000000e+00  3.2674192098769539e-01 -1.3089767481255152e-03 0.0000000000000000e+00  2.7210536881517056e-01 -1.8779956772018769e-01 0.0000000000000000e+00  -6.6241697312022563e-01 -1.9817646902643121e-02 0.0000000000000000e+00  3.5375455353886182e-01 -1.8305074988532713e-01 0.0000000000000000e+00  -3.0569635955537139e-01 -1.4734004356196814e-01 0.0000000000000000e+00  3.9627547083273162e-01 -1.2143928415724092e-02 0.0000000000000000e+00  9.8351862020343817e-01 1.1831203219657461e-02 0.0000000000000000e+00  9.0925092277919783e-01 7.3624433209792589e-02 0.0000000000000000e+00  6.0835557098699156e-01 3.5550504949946921e-01 0.0000000000000000e+00  7.8438561186669531e-01 1.9285350117889680e-01 0.0000000000000000e+00  9.9252768106627265e-01 -1.4352641464311559