<?xml version="1.0"?>
<VTKFile type="UnstructuredGrid"  version="0.1"  >
<UnstructuredGrid>
<Piece  NumberOfPoints="406" NumberOfCells="722">
<Points>
<DataArray  type="Float64"  NumberOfComponents="3"  format="ascii">-6 -2 0  -6 2 0  6 2 0  6 -2 0  -2.8 0 0  -1.2 0 0  -5.500000000001853 -2 0  -5.000000000003705 -2 0  -4.500000000005556 -2 0  -4.000000000007409 -2 0  -3.50000000000926 -2 0  -3.000000000011112 -2 0  -2.500000000012963 -2 0  -2.000000000014814 -2 0  -1.500000000016665 -2 0  -1.000000000018516 -2 0  -0.5000000000203677 -2 0  -2.204547655537681e-11 -2 0  0.4999999999796305 -2 0  0.9999999999814779 -2 0  1.499999999983327 -2 0  1.999999999985175 -2 0  2.499999999987029 -2 0  2.999999999988882 -2 0  3.499999999990735 -2 0  3.999999999992589 -2 0  4.49999999999444 -2 0  4.999999999996293 -2 0  5.499999999998147 -2 0  6 -1.500000000001387 0  6 -1.000000000002774 0  6 -0.5000000000041616 0  6 -5.505595979116151e-12 0  6 0.4999999999958384 0  6 0.9999999999972258 0  6 1.499999999998613 0  5.500000000001853 2 0  5.000000000003705 2 0  4.500000000005556 2 0  4.000000000007409 2 0  3.50000000000926 2 0  3.000000000011112 2 0  2.500000000012963 2 0  2.000000000014814 2 0  1.500000000016665 2 0  1.000000000018516 2 0  0.5000000000203677 2 0  2.204547655537681e-11 2 0  -0.4999999999796305 2 0  -0.9999999999814779 2 0  -1.499999999983327 2 0  -1.999999999985175 2 0  -2.499999999987029 2 0  -2.999999999988882 2 0  -3.499999999990735 2 0  -3.999999999992589 2 0  -4.49999999999444 2 0  -4.999999999996293 2 0  -5.499999999998147 2 0  -6 1.500000000001387 0  -6 1.000000000002774 0  -6 0.5000000000041616 0  -6 5.505595979116151e-12 0  -6 -0.4999999999958384 0  -6 -0.9999999999972258 0  -6 -1.499999999998613 0  -2.776753453941174 -0.1914525314286965 0  -2.708364820523325 -0.3717785376335722 0  -2.598808598538216 -0.5304981265911284 0  -2.454451797386757 -0.65838709271366 0  -2.283683909636528 -0.748012994147384 0  -2.096429344207466 -0.7941670992780535 0  -1.903570655798842 -0.7941670992788195 0  -1.716316090368095 -0.7480129941491368 0  -1.545548202616307 -0.6583870927157747 0  -1.401191401463757 -0.530498126593356 0  -1.291635179477527 -0.371778537635196 0  -1.223246546059047 -0.1914525314295925 0  -1.223246546058803 0.1914525314286035 0  -1.291635179476594 0.3717785376334188 0  -1.401191401461634 0.5304981265909601 0  -1.545548202612898 0.6583870927134221 0  -1.716316090363093 0.7480129941472402 0  -1.903570655792394 0.7941670992780367 0  -2.096429344201276 0.7941670992788055 0  -2.283683909631911 0.7480129941491347 0  -2.454451797383697 0.6583870927157729 0  -2.598808598536385 0.530498126593196 0  -2.70836482052258 0.3717785376349917 0  -2.776753453940975 0.1914525314295042 0  0.4588466633941945 0.2704149791022056 0  -4.424312812173863 0.2760319703992994 0  -3.803977598762586 -0.6841584599595646 0  -0.1330968762779425 -0.6798763971615133 0  2.451109587541276 3.169800318630399e-13 0  -3.563610936250569 0.5929994091167295 0  4.204753319582647 0.2820669554523581 0  -0.4390897559348154 0.6178095532273566 0  -3.041446812595122 1.175550440315544 0  -0.9622132806516797 1.132103015222783 0  1.069493318942931 -0.773608156980569 0  -4.924330687080279 -0.7127064269610045 0  -3.024693497948964 -1.195179289656404 0  -0.9648749555625579 -1.256854520022574 0  -3.443624282349383 -0.2044158249759613 0  -0.5611500783757608 -0.1747080110423833 0  1.60270880116926 0.7487034276124258 0  3.488352576142236 -0.8228939860777884 0  4.816375011670135 -0.8163750116689444 0  3.243628045085357 0.8578172796997985 0  -4.228632884234073 1.228069101636678 0  -2.365220384435482 -1.356128547810356 0  -1.637465979486354 1.3571687267915 0  -1.642380978561139 -1.359365080147485 0  -2.362988915989869 1.356737096243695 0  -5.134120367293631 0.8356299802910161 0  2.077496878467794 -0.9514080034522553 0  4.960859291178299 0.9608592911785537 0  0.3293120056474302 1.148965409695154 0  -5.157560560414062 0.09447106214747865 0  -3.14779387667392 -0.6330563038825547 0  -3.148134455585257 0.4354299640428653 0  -0.8464439673630421 0.4159277415926296 0  -0.9918125625721008 -0.7191748422889824 0  -4.355349213295776 -1.234510499778242 0  1.582074659164868 -0.06850205959954866 0  2.400584045214166 1.204278622181321 0  5.102831660739063 0.03453404176596848 0  4.083259768981113 1.154272958349666 0  -3.992394834362243 -0.1621022234411988 0  0.4290302718942113 -1.225465289645401 0  -3.681487986394671 -1.310544246656267 0  -3.640289698916164 1.187023654838123 0  0.468851680921228 -0.447055967952278 0  3.315209904217932 0.05667935655546536 0  -2.541160649745046 -1.046980928586996 0  -1.45196684542695 1.044189935346116 0  -2.000844595891861 -1.207983108473125 0  -1.453092202970521 -1.061139264918894 0  -2.000050543938391 1.207806685704176 0  -2.548033154566413 1.04418993534851 0  4.13054585796652 -1.232871249381608 0  -0.3301617095463629 1.221692405319566 0  -0.2880491989587189 -1.359626628407983 0  -0.0758941643813178 0.132275811829787 0  2.826389221580753 -1.233168480096227 0  -2.922070412327736 0.7575752117792038 0  1.003070890178416 1.271347915034201 0  -5.319521816151902 -1.310543894393663 0  -1.070407062963812 0.7877698545098388 0  -4.562499863038985 -0.2302396981426722 0  -3.164226661545047 0.07179577787350272 0  -0.9091377812900333 0.132454654016971 0  4.116029045943655 -0.4851826871817362 0  5.316659189209927 -1.316659189208741 0  -0.9498828454673396 -0.4149758979014553 0  -4.037769805263969 0.6896174350675625 0  1.431664772855882 -1.327784137638992 0  -3.646693623568034 0.1600006358878044 0  -2.878371345483476 -0.7910345833001061 0  1.062603041385242 0.2894765870627741 0  -0.547955103783681 0.1635272504420374 0  -4.804809838419659 1.41016301576038 0  -3.042895319571192 -0.3694931303482478 0  -4.59252578392403 0.792267765362792 0  2.823271260730033 -0.5472430318427347 0  -4.28575390662405 -0.7521491832384866 0  -0.5524005545121191 -0.9037367558558163 0  1.815219025072439 1.388812135783969 0  -1.288398729718543 -0.8178399475601057 0  -5.424388493366639 1.35375165044146 0  -2.256991952837567 -1.049538527273222 0  -1.739586738723494 -1.052327527873255 0  -1.738827359988536 1.050180627239116 0  -2.257795730428802 1.049701225145305 0  -0.62222340523776 -0.5483611729237363 0  2.065188519029698 0.5424877383589943 0  0.1055865106318892 0.7347782870471022 0  1.013082573993895 -0.2061877611231605 0  -5.428323520618333 -0.4386412085227075 0  5.374041502384443 -0.5304401760993408 0  3.435185060219232 -1.377658617395091 0  -3.302377238490527 0.8841390072780534 0  -0.9902123298072768 -0.124175295282554 0  0.7186958547669859 0.8724503317343631 0  2.941237214953417 1.390391532351976 0  4.708037787864423 -1.340276032051348 0  5.395029680982659 1.395029680983341 0  3.591022587550188 1.348260650408605 0  2.759385971589342 0.4857447325740718 0  -0.6832705231418494 0.8879387563573758 0  5.437781298507145 0.5981501503262471 0  -2.698603003287285 1.617130043745112 0  -3.463358189947519 -1.013588318179017 0  1.710866040171871 -0.6978716337870808 0  3.642182982762737 0.4555704362064124 0  -2.699802128031161 -1.618310703146212 0  -1.3020054856637 1.619819977935582 0  -2.000000000004996 -1.566396763829867 0  -1.999999999994794 1.566396763830688 0  -1.247812462071684 -1.595232739507426 0  4.59429106759859 1.420052135572917 0  0.9448382581152466 -1.440259145469251 0  -0.116376100998861 -0.2606209011258676 0  -4.774521510507792 0.4245390872783272 0  -2.983910172370106 -0.1208000607277856 0  -3.353983741142061 1.576062863985777 0  -5.473352579109997 0.4917619255280954 0  -4.828650470275986 -1.493148538517745 0  4.639973657165532 -0.2833178611094909 0  -2.660279445404468 0.7699932347178977 0  -1.335045190775955 0.7744876666923373 0  -3.395669172689978 0.2584951122361346 0  2.279110606119369 -1.465899541383697 0  4.734317729212562 0.4520963557364723 0  -0.6334913028224612 1.584213953723378 0  2.121854101359879 -0.4289611127787379 0  -3.474459720833238 -0.4977581316675216 0  -1.066539898844178 0.3411379476537602 0  -3.361849707555382 -1.611428512420182 0  -4.099039818938317 0.3306400369415774 0  -2.935324777364672 0.354721898811665 0  -3.973578595052027 1.482940358734671 0  3.784450148635689 -0.0702780807301525 0  -1.191348122671212 -0.5614501189722798 0  -2.838672605956353 -0.5493179047027598 0  -1.184983441257359 0.5617520886612424 0  -2.811184099847449 0.5574240755049175 0  0.2702752249355158 -0.8003643570420809 0  -0.6945947797857237 -1.593893965175195 0  0.001175881878679056 1.504521009023778 0  0.6072931735145096 1.501814722697789 0  -3.991896293645949 -1.047264188412552 0  -3.734097395159253 -0.3261671578666079 0  -5.539652387691843 -0.8857154182585802 0  -4.395061924111849 1.563293728588296 0  0.2258327611651416 -0.08745142624872881 0  -3.774816634825771 0.8676973328379478 0  2.208484493569073 1.6256686312487 0  0.1309939514660535 -1.566169703482512 0  -5.551414360955331 0.9459842275970113 0  -4.04734138658365 -1.51163984963472 0  -4.947145019546805 -0.3299925153029702 0  4.320410447198621 0.6970857582435144 0  -4.707557346727139 -1.000565649857444 0  1.353711468973986 1.582551234446199 0  1.674156483558973 0.3266252271732694 0  -4.039105552973997 -0.4537604746027087 0  0.01051727619263377 -1.088858357362194 0  -0.2234942609176301 0.8619127912343982 0  -2.95903482691863 0.1219373374385197 0  -4.682467695920681 0.0804575682243254 0  5.535750224195656 -0.1525732643419722 0  -4.290083947414376 -0.0005258314026840717 0  1.136102562417988 0.7655312464039168 0  -2.816589394567214 0.9927597419785312 0  -2.645374456162409 -0.7645902451387543 0  4.18414576655837 1.624276131878667 0  0.7127337088822223 -0.9006358935856398 0  1.972418102153911 0.9727040774616764 0  -2.42199174813501 0.8591219219254587 0  -2.418604734200992 -0.8552987735117754 0  -5.573597213364169 -0.03612430678117123 0  2.024792870869397 0.05574071630590883 0  -1.578875191508968 0.861424470724936 0  -1.54706008231699 -0.8630049102346303 0  3.848662181064435 -1.569601980075533 0  -2.000000000003871 -0.9746445732264465 0  -1.99999999
[...]
<PointData  Vectors="f_22"> 
<DataArray  type="Float64"  Name="f_22"  NumberOfComponents="3" format="ascii">0.0000000000000000e+00 0.0000000000000000e+00 0.0000000000000000e+00  0.0000000000000000e+00 0.0000000000000000e+00 0.0000000000000000e+00  0.0000000000000000e+00 0.0000000000000000e+00 0.0000000000000000e+00  0.0000000000000000e+00 0.0000000000000000e+00 0.0000000000000000e+00  9.9999995815074083e-01 0.0000000000000000e+00 0.0000000000000000e+00  9.9999995815074083e-01 0.0000000000000000e+00 0.0000000000000000e+00  0.0000000000000000e+00 0.0000000000000000e+00 0.0000000000000000e+00  0.0000000000000000e+00 0.0000000000000000e+00 0.0000000000000000e+00  0.0000000000000000e+00 0.0000000000000000e+00 0.0000000000000000e+00  0.0000000000000000e+00 0.0000000000000000e+00 0.0000000000000000e+00  0.0000000000000000e+00 0.0000000000000000e+00 0.0000000000000000e+00  0.0000000000000000e+00 0.0000000000000000e+00 0.0000000000000000e+00  0.0000000000000000e+00 0.0000000000000000e+00 0.0000000000000000e+00  0.0000000000000000e+00 0.0000000000000000e+00 0.0000000000000000e+00  0.0000000000000000e+00 0.0000000000000000e+00 0.0000000000000000e+00  0.0000000000000000e+00 0.0000000000000000e+00 0.0000000000000000e+00  0.0000000000000000e+00 0.0000000000000000e+00 0.0000000000000000e+00  0.0000000000000000e+00 0.0000000000000000e+00 0.0000000000000000e+00  0.0000000000000000e+00 0.0000000000000000e+00 0.0000000000000000e+00  0.0000000000000000e+00 0.0000000000000000e+00 0.0000000000000000e+00  0.0000000000000000e+00 0.0000000000000000e+00 0.0000000000000000e+00  0.0000000000000000e+00 0.0000000000000000e+00 0.0000000000000000e+00  0.0000000000000000e+00 0.0000000000000000e+00 0.0000000000000000e+00  0.0000000000000000e+00 0.0000000000000000e+00 0.0000000000000000e+00  0.0000000000000000e+00 0.0000000000000000e+00 0.0000000000000000e+00  0.0000000000000000e+00 0.0000000000000000e+00 0.0000000000000000e+00  0.0000000000000000e+00 0.0000000000000000e+00 0.0000000000000000e+00  0.0000000000000000e+00 0.0000000000000000e+00 0.0000000000000000e+00  0.0000000000000000e+00 0.0000000000000000e+00 0.0000000000000000e+00  3.3144158966605763e-01 -3.8526315769131178e-04 0.0000000000000000e+00  5.7235120097717984e-01 -7.3842969712542962e-04 0.0000000000000000e+00  7.1305390334084484e-01 -6.5720699123461069e-04 0.0000000000000000e+00  7.5892816156978948e-01 -2.8110345592244082e-05 0.0000000000000000e+00  7.1300601448126522e-01 6.0471633159926404e-04 0.0000000000000000e+00  5.7224039862661091e-01 7.4715760190335119e-04 0.0000000000000000e+00  3.3129763047150251e-01 3.5540209319672225e-04 0.0000000000000000e+00  0.0000000000000000e+00 0.0000000000000000e+00 0.0000000000000000e+00  0.0000000000000000e+00 0.0000000000000000e+00 0.0000000000000000e+00  0.0000000000000000e+00 0.0000000000000000e+00 0.0000000000000000e+00  0.0000000000000000e+00 0.0000000000000000e+00 0.0000000000000000e+00  0.0000000000000000e+00 0.0000000000000000e+00 0.0000000000000000e+00  0.0000000000000000e+00 0.0000000000000000e+00 0.0000000000000000e+00  0.0000000000000000e+00 0.0000000000000000e+00 0.0000000000000000e+00  0.0000000000000000e+00 0.0000000000000000e+00 0.0000000000000000e+00  0.0000000000000000e+00 0.0000000000000000e+00 0.0000000000000000e+00  0.0000000000000000e+00 0.0000000000000000e+00 0.0000000000000000e+00  0.0000000000000000e+00 0.0000000000000000e+00 0.0000000000000000e+00  0.0000000000000000e+00 0.0000000000000000e+00 0.0000000000000000e+00  0.0000000000000000e+00 0.0000000000000000e+00 0.0000000000000000e+00  0.0000000000000000e+00 0.0000000000000000e+00 0.0000000000000000e+00  0.0000000000000000e+00 0.0000000000000000e+00 0.0000000000000000e+00  0.0000000000000000e+00 0.0000000000000000e+00 0.0000000000000000e+00  0.0000000000000000e+00 0.0000000000000000e+00 0.0000000000000000e+00  0.0000000000000000e+00 0.0000000000000000e+00 0.0000000000000000e+00  0.0000000000000000e+00 0.0000000000000000e+00 0.0000000000000000e+00  0.0000000000000000e+00 0.0000000000000000e+00 0.0000000000000000e+00  0.0000000000000000e+00 0.0000000000000000e+00 0.0000000000000000e+00  0.0000000000000000e+00 0.0000000000000000e+00 0.0000000000000000e+00  0.0000000000000000e+00 0.0000000000000000e+00 0.0000000000000000e+00  3.2982640400458046e-01 -6.7615673037677178e-04 0.0000000000000000e+00  5.7154431315585985e-01 -1.1633567424817021e-03 0.0000000000000000e+00  7.1414068830531829e-01 -9.3629526034643426e-04 0.0000000000000000e+00  7.6127266808997807e-01 -2.1959123879313286e-05 0.0000000000000000e+00  7.1480526135082478e-01 1.0510288650216243e-03 0.0000000000000000e+00  5.7180789365239260e-01 1.2272355179771286e-03 0.0000000000000000e+00  3.2989530947314066e-01 7.1749732106207817e-04 0.0000000000000000e+00  9.9999995815074083e-01 0.0000000000000000e+00 0.0000000000000000e+00  9.9999995815074083e-01 0.0000000000000000e+00 0.0000000000000000e+00  9.9999995815074083e-01 0.0000000000000000e+00 0.0000000000000000e+00  9.9999995815074083e-01 0.0000000000000000e+00 0.0000000000000000e+00  9.9999995815074083e-01 0.0000000000000000e+00 0.0000000000000000e+00  9.9999995815074083e-01 0.0000000000000000e+00 0.0000000000000000e+00  9.9999995815074083e-01 0.0000000000000000e+00 0.0000000000000000e+00  9.9999995815074083e-01 0.0000000000000000e+00 0.0000000000000000e+00  9.9999995815074083e-01 0.0000000000000000e+00 0.0000000000000000e+00  9.9999995815074083e-01 0.0000000000000000e+00 0.0000000000000000e+00  9.9999995815074083e-01 0.0000000000000000e+00 0.0000000000000000e+00  9.9999995815074083e-01 0.0000000000000000e+00 0.0000000000000000e+00  9.9999995815074083e-01 0.0000000000000000e+00 0.0000000000000000e+00  9.9999995815074083e-01 0.0000000000000000e+00 0.0000000000000000e+00  9.9999995815074083e-01 0.0000000000000000e+00 0.0000000000000000e+00  9.9999995815074083e-01 0.0000000000000000e+00 0.0000000000000000e+00  9.9999995815074083e-01 0.0000000000000000e+00 0.0000000000000000e+00  9.9999995815074083e-01 0.0000000000000000e+00 0.0000000000000000e+00  9.9999995815074083e-01 0.0000000000000000e+00 0.0000000000000000e+00  9.9999995815074083e-01 0.0000000000000000e+00 0.0000000000000000e+00  9.9999995815074083e-01 0.0000000000000000e+00 0.0000000000000000e+00  9.9999995815074083e-01 0.0000000000000000e+00 0.0000000000000000e+00  9.9999995815074083e-01 0.0000000000000000e+00 0.0000000000000000e+00  9.9999995815074083e-01 0.0000000000000000e+00 0.0000000000000000e+00  8.3896552585970041e-01 1.9087421598493689e-02 0.0000000000000000e+00  7.5772170932528404e-01 -6.5094220214748462e-03 0.0000000000000000e+00  6.8423014683253203e-01 3.8601883982240473e-02 0.0000000000000000e+00  7.3036375486115845e-01 -6.2367454205658722e-02 0.0000000000000000e+00  7.8290993275477372e-01 1.7021678566387608e-05 0.0000000000000000e+00  7.2163987910068450e-01 -5.6498658615634023e-02 0.0000000000000000e+00  7.4869945006802818e-01 1.3971866489243894e-03 0.0000000000000000e+00  7.8815092588751312e-01 7.0036059516374594e-02 0.0000000000000000e+00  4.0851204629402738e-01 -1.0959038202833889e-01 0.0000000000000000e+00  3.8947203339691627e-01 1.0941318396024728e-01 0.0000000000000000e+00  6.5255643523368156e-01 -2.7616998491403231e-02 0.0000000000000000e+00  6.6697578057774110e-01 5.1145937444804371e-03 0.0000000000000000e+00  3.9393252693387759e-01 1.0891193439307212e-01 0.0000000000000000e+00  2.7329618081792756e-01 -9.5807580271560389e-02 0.0000000000000000e+00  8.2805105570631565e-01 3.0717812816303165e-02 0.0000000000000000e+00  9.5120265740400001e-01 -1.8650061128479025e-02 0.0000000000000000e+00  6.5911080045402148e-01 1.8451917377943581e-02 0.0000000000000000e+00  6.3268930900056042e-01 -4.3194348660255191e-03 0.0000000000000000e+00  6.3533326003552160e-01 -1.6595905561442538e-03 0.0000000000000000e+00  6.2065527139636212e-01 5.1262308005263777e-03 0.0000000000000000e+00  4.6268332880061214e-01 -1.4152621621881764e-02 0.0000000000000000e+00  1.3679840583703934e-01 1.1311963111487255e-01 0.0000000000000000e+00  8.9079184866656808e-02 2.9847808266717839e-02 0.0000000000000000e+00  8.6861519138103929e-02 -2.8602512575405636e-02 0.0000000000000000e+00  1.3586449079967086e-01 -1.1285622140732811e-01 0.0000000000000000e+00  6.2949056286845395e-01 -3.4741419218883118e-03 0.0000000000000000e+00  5.8152319393976859e-01 -1.2242272415432720e-02 0.0000000000000000e+00  5.8639516682012971e-01 1.3986160386762552e-03 0.0000000000000000e+00  4.5112241119757795e-01 4.4000050887735315e-02 0.0000000000000000e+00  7.6204645574452645e-01 -4.8703151263320115e-04 0.0000000000000000e+00  7.2846380264903055e-01 1.2150587437644356e-01 0.0000000000000000e+00  8.1587931032821115e-01 -9.9657986990818320e-02 0.0000000000000000e+00  9.3445710308399976e-01 4.2160874472880534e-02 0.0000000000000000e+00  7.9302270194174607e-01 -8.9009600454441562e-02 0.0000000000000000e+00  4.6207511918618865e-01 1.1313329442052565e-02 0.0000000000000000e+00  8.0491231879927383e-01 -2.4343756171809590e-03 0.0000000000000000e+00  4.7198641174070471e-01 7.2632867110518362e-03 0.0000000000000000e+00  7.6040457135098127e-01 7.1276450202120931e-05 0.0000000000000000e+00  5.0561056556349426e-01 2.1478165021653148e-03 0.0000000000000000e+00  7.8391767280484015e-01 8.9016118597918109e-03 0.0000000000000000e+00  4.1069430264582146e-01 -3.6958238723186723e-02 0.0000000000000000e+00  3.9962114815050592e-01 3.1798760578290217e-02 0.0000000000000000e+00  4.6263415937105790e-01 -4.1075042338854319e-02 0.0000000000000000e+00  7.9349489460111355e-01 -2.9774053979750713e-02 0.0000000000000000e+00  7.7009404106740165e-01 5.7015655543226436e-04 0.0000000000000000e+00  3.9777706496687648e-01 1.9397406133850092e-01 0.0000000000000000e+00  4.6060930067426092e-01 9.5919590685633563e-02 0.0000000000000000e+00  1.9889582848192414e-01 5.7463924082976042e-02 0.0000000000000000e+00  4.3774040240831563e-01 -9.4874730922420686e-02 0.0000000000000000e+00  1.9902958989425132e-01 -5.7190057875900868e-02 0.0000000000000000e+00  4.0165142350153060e-01 -1.9427301772669267e-01 0.0000000000000000e+00  4.6917959717188545e-01 -1.8654298554367922e-03 0.0000000000000000e+00  3.6656004769634654e-01 7.0924397521738972e-02 0.0000000000000000e+00  2.7724310468657343e-01 -5.5761482295148365e-02 0.0000000000000000e+00  9.0410900562766638e-01 1.3090325121249573e-02 0.0000000000000000e+00  4.6209599602229712e-01 -4.9539385679566060e-03 0.0000000000000000e+00  6.6318366202988233e-01 -1.7616959749827010e-01 0.0000000000000000e+00  4.0864768658458023e-01 2.1350887152415336e-02 0.0000000000000000e+00  4.3166267146182585e-01 1.7123372194263503e-03 0.0000000000000000e+00  7.4569381696174475e-01 9.8046609071129803e-02 0.0000000000000000e+00  7.5994355574856387e-01 4.2822588968749117e-03 0.0000000000000000e+00  8.9691925075164536e-01 -1.8368596324545898e-02 0.0000000000000000e+00  9.8882399182411729e-01 8.2907167025260149e-03 0.0000000000000000e+00  7.1875980150561325e-01 -2.3052389659189930e-03 0.0000000000000000e+00  4.3043269334888928e-01 -6.7605306580074747e-04 0.0000000000000000e+00  9.5060863449990918e-01 -3.6230008125427815e-02 0.0000000000000000e+00  6.7879873584663497e-01 -2.5300033826538532e-02 0.0000000000000000e+00  3.9197596954642572e-01 -1.3264834765295863e-02 0.0000000000000000e+00  8.0964770469434311e-01 -1.6448485489418168e-02 0.0000000000000000e+00  6.3932806874333703e-01 1.8518921238154248e-01 0.0000000000000000e+00  8.0238276239532857e-01 1.4234975902735370e-02 0.0000000000000000e+00  9.5126403005041660e-01 1.7515540577148814e-02 0.0000000000000000e+00  3.7606779764850057e-01 -3.5782983619466304e-03 0.0000000000000000e+00  8.6066982351521293e-01 1.0444417940846720e-01 0.0000000000000000e+00  6.4375652756573398e-01 -9.5427774025013574e-03 0.0000000000000000e+00  7.1151649097022873e-01 -6.3389816568840251e-03 0.0000000000000000e+00  6.5751641789248516e-01 1.6659450898508375e-02 0.0000000000000000e+00  6.0208765963131905e-01 -9.4372929564338626e-02 0.0000000000000000e+00  3.6856128616066336e-01 8.2920627925152611e-03 0.0000000000000000e+00  7.5150135490579439e-01 -9.3385878010600443e-02 0.0000000000000000e+00  4.0949971717994638e-01 -1.3172926501883420e-03 0.0000000000000000e+00  3.7019537656066054e-01 1.4261686174944205e-01 0.0000000000000000e+00  4.2576374604109113e-01 -3.9589800226183670e-02 0.0000000000000000e+00  4.2923009262208256e-01 4.0010888470491793e-02 0.0000000000000000e+00  3.6990459570386863e-01 -1.4288247788254038e-01 0.0000000000000000e+00  8.4608728988532467e-01 -6.6007513978132940e-02 0.0000000000000000e+00  7.1931224595696464e-01 1.1303075511512075e-02 0.0000000000000000e+00  6.8961247860479113e-01 5.4556896317067380e-02 0.0000000000000000e+00  8.1773050783427259e-01 -1.0738684998612677e-02 0.0000000000000000e+00  7.2614227027157641e-01 1.4362740015381012e-03 0.0000000000000000e+00  7.0773177848294155e-01 -9.8832325294535991e-04 0.0000000000000000e+00  3.9259998405672397e-01 -2.2651746355801224e-03 0.0000000000000000e+00  6.0078569354710476e-01 -9.4754894421040681e-02 0.0000000000000000e+00  9.9406346229675524e-01 -5.4321216683546657e-03 0.0000000000000000e+00  6.0919444592619920e-01 3.6241238030265840e-02 0.0000000000000000e+00  3.8266240968999610e-01 3.2333050454193438e-03 0.0000000000000000e+00  4.1698102911662227e-01 -9.6586949020548922e-04 0.0000000000000000e+00  3.8928205038443708e-01 5.4998052379067819e-04 0.0000000000000000e+00  4.0922049195430621e-01 2.1844416479209865e-03 0.0000000000000000e+00  7.2566561249184602e-01 6.2662544318689613e-03 0.0000000000000000e+00  6.1958077551320401e-01 1.0117466966765773e-01 0.0000000000000000e+00  6.9339767894494675e-01 9.6320612097038050e-04 0.0000000000000000e+00  1.0019452342877079e-01 -4.8512623362207477e-02 0.0000000000000000e+00  5.4149163158378566e-01 6.7296183361456999e-02 0.0000000000000000e+00  6.7653272582532653e-01 -1.6714881719245376e-02 0.0000000000000000e+00  7.2604340825203462e-01 3.0984649460564268e-03 0.0000000000000000e+00  9.9979896646330668e-02 4.8209986465979189e-02 0.0000000000000000e+00  -1.5268448663787293e-02 3.1349997807548123e-02 0.0000000000000000e+00  -2.5002728490720761e-02 3.2439953129285874e-02 0.0000000000000000e+00  -2.5058594869925583e-02 -3.2404924909900094e-02 0.0000000000000000e+00  2.2851957797085675e-03 -3.6891609520076293e-02 0.0000000000000000e+00  3.7423960130723144e-01 8.3811207917377107e-04 0.0000000000000000e+00  3.1453558269241660e-01 -1.5458094119577071e-02 0.0000000000000000e+00  8.8800818701530404e-01 -2.6074397374786829e-02 0.0000000000000000e+00  7.3168063675349759e-01 -4.9197318996552011e-03 0.0000000000000000e+00  9.4237298190212582e-01 3.8263667255957673e-02 0.0000000000000000e+00  2.2502362214961191e-01 -2.5838946980752092e-02 0.0000000000000000e+00  7.1639081601991106e-01 -1.3483477326045208e-03 0.0000000000000000e+00  3.2943663946701607e-01 2.8195091734236908e-03 0.0000000000000000e+00  7.4691827836436930e-01 -1.0465519526204191e-03 0.0000000000000000e+00  6.6089701884744401e-01 -2.0664190289265238e-01 0.0000000000000000e+00  8.1062702913119078e-01 7.9877987925777785e-02 0.0000000000000000e+00  8.2585196649211245e-01 -4.1577095800347887e-02 0.0000000000000000e+00  3.3358280011771729e-01 -4.4540199400115660e-03 0.0000000000000000e+00  7.2313890949150617e-01 1.3925152011353894e-03 0.0000000000000000e+00  1.0352756961551123e-01 3.8548541927014728e-02 0.0000000000000000e+00  7.4503139328222567e-01 -9.3011749485149529e-03 0.0000000000000000e+00  7.5767164873682458e-01 6.0341013039398740e-02 0.0000000000000000e+00  9.8219170249678023e-01 1.7734931224690897e-02 0.0000000000000000e+00  2.0677086737362163e-01 2.1871041940084383e-02 0.0000000000000000e+00  7.5962949262269763e-01 -1.3904719345842828e-02 0.0000000000000000e+00  8.9298334717199113e-01 -1.1079194582320720e-01 0.0000000000000000e+00  3.1879206219538164e-01 -1.2932399556682413e-02 0.0000000000000000e+00  7.6577454057676186e-01 -5.1976956274641414e-04 0.0000000000000000e+00  9.4034263921642669e-01 -4.1702567751711814e-02 0.0000000000000000e+00  8.1131622417981786e-01 1.6685003098696599e-01 0.0000000000000000e+00  9.3874212421155256e-01 4.2710033040957482e-02 0.0000000000000000e+00  8.1268701730572568e-01 -1.7036321295806114e-01 0.0000000000000000e+00  6.5010168309663219e-01 -4.9894661228601297e-02 0.0000000000000000e+00  8.9233252037968738e-02 -3.8828339768452985e-02 0.0000000000000000e+00  2.2019648513269435e-01 3.0823145915392976e-02 0.0000000000000000e+00  2.6471676533283639e-01 1.7791181756928832e-02 0.0000000000000000e+00  5.4301609553251939e-01 2.5971096583572273e-02 0.0000000000000000e+00  7.7939749153171067e-01 2.7177807557941427e-02 0.0000000000000000e+00  6.1316938273109578e-01 1.7013385094265963e-03 0.0000000000000000e+00  2.8319495564957375e-01 -4.6762904727000246e-03 0.0000000000000000e+00  8.8083143451902379e-01 -7.2508851686920945e-03 0.0000000000000000e+00  6.1634881925213370e-01 -4.1825362837969317e-02 0.0000000000000000e+00  2.4124238573564422e-01 2.5672106217392338e-03 0.0000000000000000e+00  1.9776926969330708e-01 -2.2074283151376821e-02 0.0000000000000000e+00  5.9167798705715602e-01 -1.6288648542370299e-03 0.0000000000000000e+00  3.0508534278954547e-01 1.0393666761405993e-02 0.0000000000000000e+00  7.4437654813677490e-01 2.8593281500114919e-03 0.0000000000000000e+00  6.6996880044873430e-01 2.3197130360431114e-03 0.0000000000000000e+00  5.6983483077063024e-01 7.5257130725805942e-03 0.0000000000000000e+00  2.4975852802480544e-01 6.7554442269398057e-03 0.0000000000000000e+00  7.7400082850458152e-01 1.0412839720724400e-02 0.0000000000000000e+00  7.3999229202263528e-01 2.0123128068428104e-02 0.0000000000000000e+00  4.7642260929697572e-01 -5.9993160517344692e-02 0.0000000000000000e+00  6.2360324193473682e-01 7.4790840798781177e-02 0.0000000000000000e+00  9.5043037583195511e-01 -3.9213327299055918e-02 0.0000000000000000e+00  7.6716093439968169e-01 -1.0942578104036341e-03 0.0000000000000000e+00  7.5532050117775362e-01 -3.2661228406453741e-04 0.0000000000000000e+00  7.7745678780514238e-01 2.3869035149148926e-05 0.0000000000000000e+00  6.5533028376869196e-01 2.6335269469982697e-02 0.0000000000000000e+00  4.8954107609134251e-01 -1.7810867472027922e-01 0.0000000000000000e+00  6.6818153989276696e-01 2.0459777149311828e-01 0.0000000000000000e+00  2.5443870779609579e-01 5.6303535529404639e-04 0.0000000000000000e+00  5.9530376305398236e-01 -3.6496973020877323e-02 0.0000000000000000e+00  5.7194062884058883e-01 1.3145153988924031e-02 0.0000000000000000e+00  6.0533731279888281e-01 -1.7190776986151948e-01 0.0000000000000000e+00  6.1223326206903816e-01 1.6903569558273884e-01 0.0000000000000000e+00  7.6150084341679847e-01 6.2826596921914050e-05 0.0000000000000000e+00  7.9169095098930498e-01 1.4713440886627281e-03 0.0000000000000000e+00  7.4816205036715999e-01 6.8217809536704629e-02 0.0000000000000000e+00  7.3930539893828906e-01 -7.3400219603480185e-02 0.0000000000000000e+00  2.8618369091095908e-01 -9.0799901744274629e-04 0.0000000000000000e+00  5.2544618507529250e-01 3.4654837651532239e-02 0.0000000000000000e+00  5.2542766408415598e-01 -3.4678748177974221e-02 0.0000000000000000e+00  2.8500044019328380e-01 -1.2748157975203300e-01 0.0000000000000000e+00  5.9274606300965826e-01 3.6660172655989566e-03 0.0000000000000000e+00  5.2451883102083185e-01 1.1403462415569302e-01 0.0000000000000000e+00  8.5045533418034502e-01 -2.4557884261748185e-03 0.0000000000000000e+00  5.7714713541726137e-01 8.8598836961898135e-04 0.0000000000000000e+00  5.9727411934959485e-01 -9.3301333565693975e-04 0.0000000000000000e+00  5.7492385909894306e-01 6.6338707623513210e-03 0.0000000000000000e+00  2.0667597024869139e-01 8.6493154768866376e-02 0.0000000000000000e+00  4.8907981251509203e-01 -1.1534568140526921e-01 0.0000000000000000e+00  6.1740823147963753e-01 -8.8489511703500699e-03 0.0000000000000000e+00  6.2571066209925097e-01 -2.2688582863607093e-03 0.0000000000000000e+00  2.5550180998606031e-01 -5.5589162980840886e-04 0.0000000000000000e+00  2.4343279399248743e-01 -4.1518132421691188e-03 0.0000000000000000e+00  8.0306577336335472e-01 -3.9556440241534263e-02