<?xml version="1.0"?>
<VTKFile type="UnstructuredGrid"  version="0.1"  >
<UnstructuredGrid>
<Piece  NumberOfPoints="622" NumberOfCells="1116">
<Points>
<DataArray  type="Float64"  NumberOfComponents="3"  format="ascii">-6 -2 0  -6 2 0  6 2 0  6 -2 0  -2.8 0 0  -1.2 0 0  -5.500000000001853 -2 0  -5.000000000003705 -2 0  -4.500000000005556 -2 0  -4.000000000007409 -2 0  -3.50000000000926 -2 0  -3.000000000011112 -2 0  -2.500000000012963 -2 0  -2.000000000014814 -2 0  -1.500000000016665 -2 0  -1.000000000018516 -2 0  -0.5000000000203677 -2 0  -2.204547655537681e-11 -2 0  0.4999999999796305 -2 0  0.9999999999814779 -2 0  1.499999999983327 -2 0  1.999999999985175 -2 0  2.499999999987029 -2 0  2.999999999988882 -2 0  3.499999999990735 -2 0  3.999999999992589 -2 0  4.49999999999444 -2 0  4.999999999996293 -2 0  5.499999999998147 -2 0  6 -1.500000000001387 0  6 -1.000000000002774 0  6 -0.5000000000041616 0  6 -5.505595979116151e-12 0  6 0.4999999999958384 0  6 0.9999999999972258 0  6 1.499999999998613 0  5.500000000001853 2 0  5.000000000003705 2 0  4.500000000005556 2 0  4.000000000007409 2 0  3.50000000000926 2 0  3.000000000011112 2 0  2.500000000012963 2 0  2.000000000014814 2 0  1.500000000016665 2 0  1.000000000018516 2 0  0.5000000000203677 2 0  2.204547655537681e-11 2 0  -0.4999999999796305 2 0  -0.9999999999814779 2 0  -1.499999999983327 2 0  -1.999999999985175 2 0  -2.499999999987029 2 0  -2.999999999988882 2 0  -3.499999999990735 2 0  -3.999999999992589 2 0  -4.49999999999444 2 0  -4.999999999996293 2 0  -5.499999999998147 2 0  -6 1.500000000001387 0  -6 1.000000000002774 0  -6 0.5000000000041616 0  -6 5.505595979116151e-12 0  -6 -0.4999999999958384 0  -6 -0.9999999999972258 0  -6 -1.499999999998613 0  -2.796147781337886 -0.07841371226233997 0  -2.784628224322852 -0.1560722576115546 0  -2.765552268586196 -0.2322277418021561 0  -2.739103626009626 -0.30614674589063 0  -2.705537011479457 -0.3771173894593519 0  -2.665175689843037 -0.4444561864141836 0  -2.618408362691456 -0.5075146273293722 0  -2.565685424950688 -0.5656854249477874 0  -2.507514627332613 -0.6184083626887972 0  -2.444456186417533 -0.6651756898407991 0  -2.377117389462776 -0.7055370114776264 0  -2.306146745894456 -0.7391036260080417 0  -2.232227741806235 -0.7655522685849585 0  -2.15607225761588 -0.784628224321992 0  -2.078413712266957 -0.7961477813374315 0  -2.000000000003407 -0.7999999999999998 0  -1.921586287739523 -0.7961477813380696 0  -1.843927742389945 -0.7846282243231506 0  -1.767772258198879 -0.7655522685865098 0  -1.693853254109962 -0.7391036260098718 0  -1.622882610540873 -0.7055370114795768 0  -1.555543813585629 -0.6651756898429115 0  -1.49248537267008 -0.6184083626910072 0  -1.434314575051535 -0.5656854249500112 0  -1.381591637310384 -0.5075146273316149 0  -1.334824310158267 -0.4444561864161359 0  -1.294462988521423 -0.3771173894609975 0  -1.260896373990956 -0.3061467458920351 0  -1.234447731414138 -0.2322277418032578 0  -1.215371775677287 -0.156072257612254 0  -1.203852218662147 -0.07841371226267954 0  -1.203852218662115 0.07841371226235888 0  -1.215371775677132 0.156072257611478 0  -1.234447731413795 0.232227741802127 0  -1.260896373990353 0.3061467458905811 0  -1.294462988520456 0.3771173894591898 0  -1.334824310156812 0.444456186413959 0  -1.381591637308413 0.5075146273292139 0  -1.434314575049147 0.5656854249476236 0  -1.492485372667197 0.6184083626886415 0  -1.555543813582104 0.6651756898405565 0  -1.62288261053673 0.7055370114773629 0  -1.693853254105125 0.7391036260078683 0  -1.767772258193396 0.7655522685848468 0  -1.84392774238373 0.7846282243219146 0  -1.921586287732977 0.7961477813374253 0  -1.999999999996558 0.8 0  -2.078413712260516 0.7961477813380661 0  -2.156072257610207 0.7846282243231205 0  -2.232227741801178 0.7655522685864928 0  -2.306146745890059 0.7391036260098632 0  -2.377117389459098 0.7055370114795929 0  -2.444456186414405 0.6651756898428894 0  -2.50751462732998 0.6184083626909587 0  -2.565685424948549 0.5656854249499272 0  -2.61840836268981 0.5075146273313792 0  -2.665175689841831 0.4444561864159886 0  -2.705537011478692 0.3771173894607835 0  -2.739103626009108 0.3061467458918818 0  -2.76555226858589 0.2322277418031643 0  -2.784628224322724 0.1560722576122001 0  -2.796147781337853 0.07841371226267957 0  0.6720367661319522 0.1312687487860887 0  -4.389489086394485 0.3544472233398538 0  -3.816221554046232 -0.6097988664512611 0  -3.552726516474419 0.9342959806851625 0  -0.2536610443052337 0.8162373554653355 0  -0.1843238977799138 -0.6649951410982842 0  -3.613359951620445 0.1086570650978273 0  -3.146954163409593 -1.074378179335012 0  -0.4255266515582625 0.07734891565364931 0  -0.9413731612925856 1.168014724254929 0  -2.947764053183577 1.200029094390044 0  -0.8319852757411681 -1.058626838707328 0  2.675418990747819 -1.137325591670363e-12 0  -2.602010642259726 -1.287560129290477 0  -2.334401622060699 1.335006108940604 0  -1.524718496628401 1.32890816230333 0  -1.369813829148039 -1.26145150481762 0  -3.294065651892671 -0.4630240940010318 0  -2.072749204569071 -1.388981302138359 0  -0.7546165313921411 0.5601792161340381 0  -3.224879719581335 0.4382689715877901 0  -0.7073137361349826 -0.4625305410752652 0  4.326242945813966 0.3262429458150917 0  -3.187880061217201 0.07437712177460168 0  -2.94792024259867 0.7030255657465158 0  -2.678809277907896 0.9152683582887104 0  -4.911626141576894 -0.5700186648601188 0  -2.980647654587299 -0.5685006168686053 0  -2.769438919323564 -0.8202775213660614 0  -1.936950121013948 1.220669938589229 0  -0.8971643766260747 0.2762459428874499 0  -0.8760878018253068 -0.06836412137772707 0  -1.086827485441145 0.6772548942594016 0  -1.31355927028917 0.8808768148414213 0  -1.034266382739347 -0.5912381576649568 0  -1.241594139118264 -0.836771920085274 0  1.667161185638911 -0.6367996576268693 0  1.778189842800902 0.7191719841256095 0  -3.065106827511819 -0.266795371500425 0  3.714311277362231 -0.7275465302492842 0  -1.728329421201519 -1.09954751473283 0  4.870629493137888 -0.7325040699186681 0  -3.024707894719303 0.2567561910603656 0  -4.375540207252226 1.228935704312058 0  -2.272077148001781 -1.086192861256262 0  3.351408248797803 0.9175227128129597 0  -5.141847419540732 0.8091901960109126 0  0.5769368286199241 1.111816231125821 0  0.7411482978492124 -1.079569101289617 0  -1.074013749991219 0.430231207546053 0  -1.04664573441257 -0.3358382377487088 0  -2.439195336951085 0.9224778883059374 0  -2.902607676587358 0.4360473765597399 0  -1.629450174302152 1.035617385691805 0  -2.146859933125513 1.032375363966426 0  2.587625196444542 -0.9999926061845814 0  -2.529286802957126 -0.8830616815739111 0  -1.493798157676768 -0.8794705728517196 0  -1.932158132383022 -1.026681566564148 0  -4.09956359341904 -0.1372485582942864 0  5.055802064425553 1.050933510837308 0  -4.413659685984891 -1.207626391697488 0  -4.961411026474009 0.1201902955685026 0  -3.771151641156835 -1.303594976371997 0  -3.001321503506133 -0.04919177107285733 0  -3.881733605683001 0.5124517634812003 0  -0.1971627317996802 -1.336445372382849 0  -2.742825060181767 0.6732573903735507 0  2.520439429199979 1.129372838786189 0  -1.026326428668429 0.1384273198437734 0  -2.779290004861729 -0.5844691722665721 0  -2.895095740820851 -0.4261289730972082 0  -1.275682076193407 0.6630703172777138 0  0.1045291701958869 0.3433373435296472 0  5.175560481258801 0.0608563229178163 0  -1.211574424201636 -0.5847362589868093 0  -1.85847006217035 1.007917631940711 0  4.152535916385823 1.131901130662082 0  -1.04878257200685 -0.1253529988863012 0  1.432836501626023 0.05634449574318775 0  3.560672936003603 0.01188897172456759 0  -3.351823698389408 -0.1821329582635926 0  -5.145153363200735 -1.259166339382508 0  0.03473693330309885 -0.1724947236036572 0  -4.377830921337186 -0.6172564090242229 0  -0.3943750728122595 1.410897156959435 0  -1.661073679471639 -0.9342065000197183 0  -1.49086536677686 0.8331714487926741 0  -2.584486130952032 0.7871482690034864 0  4.270535884593893 -1.259607924744415 0  -1.757417028085795 -1.505182186951191 0  -3.430586920998477 1.425579221231371 0  -2.917598827418652 -0.2298465409534677 0  -2.328978331116049 -0.9300959620317677 0  -2.148543000691344 -0.9751580214451921 0  1.002654111360038 -0.4521702885594788 0  -4.628651824080903 -0.1127998710567241 0  -2.948904386702482 0.1555943115410545 0  0.4165242577134774 -0.5629432649478633 0  -3.698137692471105 -0.3173027948676715 0  -3.491400684461791 -0.7926319721650269 0  -0.3844454817728994 0.4680628696134375 0  -3.207830713508533 0.9778749990559993 0  3.229909751065535 -1.326302454776001 0  5.330007715336748 -1.312905173261894 0  -2.649214054100534 -0.713314536278899 0  1.342022964818772 -1.328315248672686 0  -2.556460939068198 1.202372762828344 0  -0.3497819755044588 -0.3080427614060888 0  -4.928440909495523 1.387622767511967 0  1.309170811945155 1.337467055109531 0  -1.352031940181449 -0.7151198948590243 0  -0.6132855723904642 0.9519045895123004 0  4.266838388406324 -0.3707357390867402 0  -3.834389788310238 1.371594798941152 0  -1.187890214580146 0.4851427123079557 0  -1.109118888029193 0.3185947354467283 0  0.1837819401738013 1.234799661476361 0  1.108165254659559 0.6237223548284967 0  -0.5266600156584522 -0.8113991260886402 0  -4.643822083543982 0.7834094684931707 0  -1.146235204666366 -0.4027330721405781 0  2.049029845992713 -0.2664662499985428 0  2.002665761665898 -1.328912351029848 0  -1.678783505586872 0.8978832065736417 0  -2.049499525232052 0.9483890761590005 0  -2.229972236535132 0.9181006323151361 0  -3.033763529945482 -1.54240494280775 0  -3.562344364746847 0.5622550957224539 0  -5.524396842903405 -0.2709714867672603 0  -0.9710982764034376 -1.549038578476423 0  3.058819320130555 -0.5375106252795963 0  -4.170365230099585 0.7342553699229977 0  -1.045878746461381 -8.187420622554697e-05 0  -1.864822945411764 -0.9219031104673102 0  -0.6251005091687033 -0.2120650512195049 0  2.317562622406059 0.4886417799113238 0  -0.6674371191466613 0.1483993095055008 0  -2.705757882979874 1.609712312948224 0  
[...]
<PointData  Vectors="f_22"> 
<DataArray  type="Float64"  Name="f_22"  NumberOfComponents="3" format="ascii">0.0000000000000000e+00 0.0000000000000000e+00 0.0000000000000000e+00  0.0000000000000000e+00 0.0000000000000000e+00 0.0000000000000000e+00  0.0000000000000000e+00 0.0000000000000000e+00 0.0000000000000000e+00  0.0000000000000000e+00 0.0000000000000000e+00 0.0000000000000000e+00  9.9999998170597060e-01 0.0000000000000000e+00 0.0000000000000000e+00  9.9999998170597060e-01 0.0000000000000000e+00 0.0000000000000000e+00  0.0000000000000000e+00 0.0000000000000000e+00 0.0000000000000000e+00  0.0000000000000000e+00 0.0000000000000000e+00 0.0000000000000000e+00  0.0000000000000000e+00 0.0000000000000000e+00 0.0000000000000000e+00  0.0000000000000000e+00 0.0000000000000000e+00 0.0000000000000000e+00  0.0000000000000000e+00 0.0000000000000000e+00 0.0000000000000000e+00  0.0000000000000000e+00 0.0000000000000000e+00 0.0000000000000000e+00  0.0000000000000000e+00 0.0000000000000000e+00 0.0000000000000000e+00  0.0000000000000000e+00 0.0000000000000000e+00 0.0000000000000000e+00  0.0000000000000000e+00 0.0000000000000000e+00 0.0000000000000000e+00  0.0000000000000000e+00 0.0000000000000000e+00 0.0000000000000000e+00  0.0000000000000000e+00 0.0000000000000000e+00 0.0000000000000000e+00  0.0000000000000000e+00 0.0000000000000000e+00 0.0000000000000000e+00  0.0000000000000000e+00 0.0000000000000000e+00 0.0000000000000000e+00  0.0000000000000000e+00 0.0000000000000000e+00 0.0000000000000000e+00  0.0000000000000000e+00 0.0000000000000000e+00 0.0000000000000000e+00  0.0000000000000000e+00 0.0000000000000000e+00 0.0000000000000000e+00  0.0000000000000000e+00 0.0000000000000000e+00 0.0000000000000000e+00  0.0000000000000000e+00 0.0000000000000000e+00 0.0000000000000000e+00  0.0000000000000000e+00 0.0000000000000000e+00 0.0000000000000000e+00  0.0000000000000000e+00 0.0000000000000000e+00 0.0000000000000000e+00  0.0000000000000000e+00 0.0000000000000000e+00 0.0000000000000000e+00  0.0000000000000000e+00 0.0000000000000000e+00 0.0000000000000000e+00  0.0000000000000000e+00 0.0000000000000000e+00 0.0000000000000000e+00  1.0966992117570162e-01 7.0985298765037150e-05 0.0000000000000000e+00  1.1352418317232930e-01 2.7344113032413586e-05 0.0000000000000000e+00  1.1381971128451973e-01 -2.6435959815322616e-05 0.0000000000000000e+00  1.1380362186182209e-01 -2.3542539249680318e-06 0.0000000000000000e+00  1.1376538018605839e-01 2.5591507762765613e-05 0.0000000000000000e+00  1.1368953852918419e-01 -2.0828651539188122e-05 0.0000000000000000e+00  1.0870800454012944e-01 1.3725266804691426e-04 0.0000000000000000e+00  0.0000000000000000e+00 0.0000000000000000e+00 0.0000000000000000e+00  0.0000000000000000e+00 0.0000000000000000e+00 0.0000000000000000e+00  0.0000000000000000e+00 0.0000000000000000e+00 0.0000000000000000e+00  0.0000000000000000e+00 0.0000000000000000e+00 0.0000000000000000e+00  0.0000000000000000e+00 0.0000000000000000e+00 0.0000000000000000e+00  0.0000000000000000e+00 0.0000000000000000e+00 0.0000000000000000e+00  0.0000000000000000e+00 0.0000000000000000e+00 0.0000000000000000e+00  0.0000000000000000e+00 0.0000000000000000e+00 0.0000000000000000e+00  0.0000000000000000e+00 0.0000000000000000e+00 0.0000000000000000e+00  0.0000000000000000e+00 0.0000000000000000e+00 0.0000000000000000e+00  0.0000000000000000e+00 0.0000000000000000e+00 0.0000000000000000e+00  0.0000000000000000e+00 0.0000000000000000e+00 0.0000000000000000e+00  0.0000000000000000e+00 0.0000000000000000e+00 0.0000000000000000e+00  0.0000000000000000e+00 0.0000000000000000e+00 0.0000000000000000e+00  0.0000000000000000e+00 0.0000000000000000e+00 0.0000000000000000e+00  0.0000000000000000e+00 0.0000000000000000e+00 0.0000000000000000e+00  0.0000000000000000e+00 0.0000000000000000e+00 0.0000000000000000e+00  0.0000000000000000e+00 0.0000000000000000e+00 0.0000000000000000e+00  0.0000000000000000e+00 0.0000000000000000e+00 0.0000000000000000e+00  0.0000000000000000e+00 0.0000000000000000e+00 0.0000000000000000e+00  0.0000000000000000e+00 0.0000000000000000e+00 0.0000000000000000e+00  0.0000000000000000e+00 0.0000000000000000e+00 0.0000000000000000e+00  0.0000000000000000e+00 0.0000000000000000e+00 0.0000000000000000e+00  1.0650520743440102e-01 -1.0599589892242626e-03 0.0000000000000000e+00  1.1283432530166536e-01 -1.4807640387715440e-03 0.0000000000000000e+00  1.1734475136739267e-01 -1.4689440849753634e-03 0.0000000000000000e+00  1.1956227210719293e-01 4.3821574240358532e-04 0.0000000000000000e+00  1.1810720339226956e-01 9.0264293552389668e-04 0.0000000000000000e+00  1.1363328933173901e-01 1.4501765952957954e-03 0.0000000000000000e+00  1.0594928810121407e-01 1.1112258297787253e-03 0.0000000000000000e+00  9.9999998170597060e-01 0.0000000000000000e+00 0.0000000000000000e+00  9.9999998170597060e-01 0.0000000000000000e+00 0.0000000000000000e+00  9.9999998170597060e-01 0.0000000000000000e+00 0.0000000000000000e+00  9.9999998170597060e-01 0.0000000000000000e+00 0.0000000000000000e+00  9.9999998170597060e-01 0.0000000000000000e+00 0.0000000000000000e+00  9.9999998170597060e-01 0.0000000000000000e+00 0.0000000000000000e+00  9.9999998170597060e-01 0.0000000000000000e+00 0.0000000000000000e+00  9.9999998170597060e-01 0.0000000000000000e+00 0.0000000000000000e+00  9.9999998170597060e-01 0.0000000000000000e+00 0.0000000000000000e+00  9.9999998170597060e-01 0.0000000000000000e+00 0.0000000000000000e+00  9.9999998170597060e-01 0.0000000000000000e+00 0.0000000000000000e+00  9.9999998170597060e-01 0.0000000000000000e+00 0.0000000000000000e+00  9.9999998170597060e-01 0.0000000000000000e+00 0.0000000000000000e+00  9.9999998170597060e-01 0.0000000000000000e+00 0.0000000000000000e+00  9.9999998170597060e-01 0.0000000000000000e+00 0.0000000000000000e+00  9.9999998170597060e-01 0.0000000000000000e+00 0.0000000000000000e+00  9.9999998170597060e-01 0.0000000000000000e+00 0.0000000000000000e+00  9.9999998170597060e-01 0.0000000000000000e+00 0.0000000000000000e+00  9.9999998170597060e-01 0.0000000000000000e+00 0.0000000000000000e+00  9.9999998170597060e-01 0.0000000000000000e+00 0.0000000000000000e+00  9.9999998170597060e-01 0.0000000000000000e+00 0.0000000000000000e+00  9.9999998170597060e-01 0.0000000000000000e+00 0.0000000000000000e+00  9.9999998170597060e-01 0.0000000000000000e+00 0.0000000000000000e+00  9.9999998170597060e-01 0.0000000000000000e+00 0.0000000000000000e+00  9.9999998170597060e-01 0.0000000000000000e+00 0.0000000000000000e+00  9.9999998170597060e-01 0.0000000000000000e+00 0.0000000000000000e+00  9.9999998170597060e-01 0.0000000000000000e+00 0.0000000000000000e+00  9.9999998170597060e-01 0.0000000000000000e+00 0.0000000000000000e+00  9.9999998170597060e-01 0.0000000000000000e+00 0.0000000000000000e+00  9.9999998170597060e-01 0.0000000000000000e+00 0.0000000000000000e+00  9.9999998170597060e-01 0.0000000000000000e+00 0.0000000000000000e+00  9.9999998170597060e-01 0.0000000000000000e+00 0.0000000000000000e+00  9.9999998170597060e-01 0.0000000000000000e+00 0.0000000000000000e+00  9.9999998170597060e-01 0.0000000000000000e+00 0.0000000000000000e+00  9.9999998170597060e-01 0.0000000000000000e+00 0.0000000000000000e+00  9.9999998170597060e-01 0.0000000000000000e+00 0.0000000000000000e+00  9.9999998170597060e-01 0.0000000000000000e+00 0.0000000000000000e+00  9.9999998170597060e-01 0.0000000000000000e+00 0.0000000000000000e+00  9.9999998170597060e-01 0.0000000000000000e+00 0.0000000000000000e+00  9.9999998170597060e-01 0.0000000000000000e+00 0.0000000000000000e+00  9.9999998170597060e-01 0.0000000000000000e+00 0.0000000000000000e+00  9.9999998170597060e-01 0.0000000000000000e+00 0.0000000000000000e+00  9.9999998170597060e-01 0.0000000000000000e+00 0.0000000000000000e+00  9.9999998170597060e-01 0.0000000000000000e+00 0.0000000000000000e+00  9.9999998170597060e-01 0.0000000000000000e+00 0.0000000000000000e+00  9.9999998170597060e-01 0.0000000000000000e+00 0.0000000000000000e+00  9.9999998170597060e-01 0.0000000000000000e+00 0.0000000000000000e+00  9.9999998170597060e-01 0.0000000000000000e+00 0.0000000000000000e+00  9.9999998170597060e-01 0.0000000000000000e+00 0.0000000000000000e+00  9.9999998170597060e-01 0.0000000000000000e+00 0.0000000000000000e+00  9.9999998170597060e-01 0.0000000000000000e+00 0.0000000000000000e+00  9.9999998170597060e-01 0.0000000000000000e+00 0.0000000000000000e+00  9.9999998170597060e-01 0.0000000000000000e+00 0.0000000000000000e+00  9.9999998170597060e-01 0.0000000000000000e+00 0.0000000000000000e+00  9.9999998170597060e-01 0.0000000000000000e+00 0.0000000000000000e+00  9.9999998170597060e-01 0.0000000000000000e+00 0.0000000000000000e+00  9.9999998170597060e-01 0.0000000000000000e+00 0.0000000000000000e+00  9.9999998170597060e-01 0.0000000000000000e+00 0.0000000000000000e+00  9.9999998170597060e-01 0.0000000000000000e+00 0.0000000000000000e+00  9.9999998170597060e-01 0.0000000000000000e+00 0.0000000000000000e+00  9.9999998170597060e-01 0.0000000000000000e+00 0.0000000000000000e+00  9.9999998170597060e-01 0.0000000000000000e+00 0.0000000000000000e+00  1.5193045471792849e-01 6.7673668302521868e-03 0.0000000000000000e+00  1.4647377575787771e-01 -2.1408749201250511e-02 0.0000000000000000e+00  1.6231196143824514e-01 9.1781990260748139e-02 0.0000000000000000e+00  9.7005400695654775e-02 -1.4890965735255368e-01 0.0000000000000000e+00  1.2263673742240519e-01 1.6903318850860832e-01 0.0000000000000000e+00  1.6248996505185770e-01 -1.4598056630907100e-01 0.0000000000000000e+00  2.6290022473999597e-01 -3.1062187893285353e-02 0.0000000000000000e+00  -9.0833496339835073e-03 2.3781430356883382e-01 0.0000000000000000e+00  3.7623667222496149e-01 4.2733248833776744e-02 0.0000000000000000e+00  -1.6561386150400936e-01 2.9427647100580556e-01 0.0000000000000000e+00  -1.0741820382656493e-01 -2.5315865697708928e-01 0.0000000000000000e+00  -5.9052084782700909e-02 -3.2333168994310524e-01 0.0000000000000000e+00  1.1506921547320886e-01 1.3662011773137774e-04 0.0000000000000000e+00  -2.9692148530713425e-01 2.5889507847015952e-01 0.0000000000000000e+00  -4.5002816129673157e-01 -2.0648924510710734e-01 0.0000000000000000e+00  -4.9891632083046950e-01 1.7644165287938682e-01 0.0000000000000000e+00  -4.2891491165640805e-01 -2.5576384528600227e-01 0.0000000000000000e+00  2.7510856660520511e-01 2.1081358962976379e-01 0.0000000000000000e+00  -5.3004518261473410e-01 8.7368149761777328e-02 0.0000000000000000e+00  2.7134519784416250e-01 4.1811021165109358e-01 0.0000000000000000e+00  3.0701296040612719e-01 -2.3992518748268865e-01 0.0000000000000000e+00  3.4588366474498866e-01 -3.6156703583716859e-01 0.0000000000000000e+00  1.1404056763812066e-01 7.5455979117137125e-06 0.0000000000000000e+00  4.6647092230840759e-01 -5.5914019646267618e-02 0.0000000000000000e+00  1.3344435363604648e-01 -4.4805768181808808e-01 0.0000000000000000e+00  -1.6404682837872783e-01 -5.0386510709146615e-01 0.0000000000000000e+00  1.2388406252953882e-01 1.2616287840001962e-02 0.0000000000000000e+00  2.6142463585284781e-01 4.3135501159025003e-01 0.0000000000000000e+00  -4.4977905532178307e-02 5.3619891128963670e-01 0.0000000000000000e+00  -6.3985190763412647e-01 -5.0173125096876381e-02 0.0000000000000000e+00  6.7789188704802827e-01 3.7468298285882884e-01 0.0000000000000000e+00  8.0989355997707535e-01 -9.5372793835456063e-02 0.0000000000000000e+00  5.7704730519856438e-02 7.3831132675140554e-01 0.0000000000000000e+00  -3.9569635109894624e-01 6.4630286573262152e-01 0.0000000000000000e+00  2.3031102624459437e-01 -7.0426077070021109e-01 0.0000000000000000e+00  -2.7981340106622882e-01 -6.9590947054920749e-01 0.0000000000000000e+00  1.1679576310517750e-01 -6.3551243031305825e-03 0.0000000000000000e+00  1.1620984540808896e-01 5.0252755717439656e-03 0.0000000000000000e+00  4.8589649875566682e-01 2.5090602168625148e-01 0.0000000000000000e+00  1.1404243863301766e-01 -2.9935928443955315e-04 0.0000000000000000e+00  -7.2844123990099396e-01 -1.4399960803954259e-01 0.0000000000000000e+00  1.1394465741651041e-01 -1.0931271124097116e-04 0.0000000000000000e+00  5.2153865833264734e-01 -2.7208150700091016e-01 0.0000000000000000e+00  9.7118703984786753e-02 -3.3931491489945217e-02 0.0000000000000000e+00  -5.7056660136259085e-01 3.4322149017521414e-01 0.0000000000000000e+00  1.1316883438926222e-01 1.9911251277609243e-04 0.0000000000000000e+00  1.1634881921301148e-01 -1.0026360962953743e-02 0.0000000000000000e+00  1.0395012305678178e-01 4.1015038605109654e-02 0.0000000000000000e+00  1.0662868694769811e-01 -2.9653366004490748e-02 0.0000000000000000e+00  7.3650146809485695e-01 3.2540007555603900e-01 0.0000000000000000e+00  8.3585158065862952e-01 -2.2953677268927705e-01 0.0000000000000000e+00  -4.0422473297244399e-01 -5.5993871716571808e-01 0.0000000000000000e+00  4.2615635921704270e-01 -4.6745900039616334e-01 0.0000000000000000e+00  -7.2793000181183454e-01 2.8671639191285159e-01 0.0000000000000000e+00  -7.0689663553282167e-01 -2.9593234111637834e-01 0.0000000000000000e+00  1.1341248612559111e-01 -1.5065662643970567e-03 0.0000000000000000e+00  -2.7051440167164731e-01 5.8527000352372061e-01 0.0000000000000000e+00  -4.3354615659304996e-01 -5.5937361296859578e-01 0.0000000000000000e+00  -8.2460947046113886e-01 4.7419269832437841e-02 0.0000000000000000e+00  1.7747710423006435e-01 1.4952616242997496e-02 0.0000000000000000e+00  1.1317407671701483e-01 7.1316997097799854e-05 0.0000000000000000e+00  9.7460697108978769e-02 3.3486524387680787e-02 0.0000000000000000e+00  1.2979400631299601e-01 -2.7563665619257886e-03 0.0000000000000000e+00  5.4473606616141701e-02 7.8962866992502864e-02 0.0000000000000000e+00  6.5308127833272911e-01 4.9873588695936472e-02 0.0000000000000000e+00  1.7210118374368755e-01 -7.2093876465634976e-02 0.0000000000000000e+00  2.2622561967405488e-02 -1.0316432582035047e-01 0.0000000000000000e+00  9.1676596775077418e-02 -6.3996046370583548e-01 0.0000000000000000e+00  1.1304182322418634e-01 1.8285904509732008e-03 0.0000000000000000e+00  9.3827954029151672e-01 6.5098141449425814e-02 0.0000000000000000e+00  2.2673988240218743e-01 6.2890219034609418e-01 0.0000000000000000e+00  4.4679638112135789e-01 4.6424916898735424e-01 0.0000000000000000e+00  4.4953279120839601e-01 4.2009391703842247e-01 0.0000000000000000e+00  1.9279892010750335e-01 5.7733798442620908e-02 0.0000000000000000e+00  1.1389374351320428e-01 -5.7869394310309370e-06 0.0000000000000000e+00  6.1683998771104975e-01 -3.5245954849440969e-01 0.0000000000000000e+00  -8.3036232517714681e-01 5.2437059987395965e-02 0.0000000000000000e+00  1.1296537421866062e-01 5.9278679394427473e-05 0.0000000000000000e+00  9.4974533748339152e-01 -6.1730615687240080e-02 0.0000000000000000e+00  1.2437340275128192e-01 1.0585016364467223e-03 0.0000000000000000e+00  1.1422730273743646e-01 -7.7234134987380607e-05 0.0000000000000000e+00  3.5192882999317193e-01 8.8213460151100181e-02 0.0000000000000000e+00  1.0780377666169345e-01 9.4533990104235660e-03 0.0000000000000000e+00  2.1879240592219631e-01 -3.6181793430664508e-02 0.0000000000000000e+00  1.3515613499970550e-01 3.3949079522817831e-02 0.0000000000000000e+00  -2.5760058328454002e-02 1.0587638788520472e-01 0.0000000000000000e+00  -6.6123365876664864e-01 -3.5318949123506244e-01 0.0000000000000000e+00  -1.6938879443364335e-01 4.7073479936493900e-01 0.0000000000000000e+00  -1.7783326304384661e-01 -6.8084988739567576e-01 0.0000000000000000e+00  1.1353273571103688e-01 -4.5023080010775775e-05 0.0000000000000000e+00  -4.8290543567755273e-01 -3.8209999671829260e-02 0.0000000000000000e+00  -1.7064271098990117e-02 -1.0139623556574147e-01 0.0000000000000000e+00  6.4469031358001760e-01 3.2355203797463855e-01 0.0000000000000000e+00  -5.4519759157867409e-01 5.2155487879714613e-01 0.0000000000000000e+00  -7.3084569630501339e-01 3.4685409352771318e-01 0.0000000000000000e+00  1.2838616895907573e-01 -1.4677341873714823e-02 0.0000000000000000e+00  1.3893884257230274e-01 5.2139463378193633e-03 0.0000000000000000e+00  6.7501313903877391e-01 -2.0519829755790195e-01 0.0000000000000000e+00  1.4595840702783236e-01 -4.4996358110525179e-02 0.0000000000000000e+00  2.2385015579074286e-01 7.1056081160390860e-02 0.0000000000000000e+00  1.3738579266626405e-01 1.6663603121141687e-01 0.0000000000000000e+00  2.4992534725117652e-01 1.8096978485140450e-01 0.0000000000000000e+00  4.0213990227677326e-02 -2.4916553743329384e-01 0.0000000000000000e+00  1.1399181083490670e-01 -4.0519140836299615e-04 0.0000000000000000e+00  1.1433193761463767e-01 -9.3449167782037703e-07 0.0000000000000000e+00  -4.4233155053257145e-02 7.0386799738596129e-01 0.0000000000000000e+00  1.0819555133713814e-01 -9.7731201743849871e-03 0.0000000000000000e+00  -3.1399002056688124e-01 -3.2326526030803582e-01 0.0000000000000000e+00  2.9323097913226714e-01 -1.2320327524432693e-01 0.0000000000000000e+00  1.0389715574472051e-01 -1.2083739454217143e-02 0.0000000000000000e+00  1.0555330249279099e-01 1.1147964534014622e-02 0.0000000000000000e+00  3.4989403116132145e-01 -4.0422114096285428e-01 0.0000000000000000e+00  4.9958852027158926e-02 2.7351527220534400e-01 0.0000000000000000e+00  1.1397821490716088e-01 -1.1116777669838625e-04 0.0000000000000000e+00  5.2940860626132333e-02 -6.7041401557727948e-02 0.0000000000000000e+00  8.2301810033877398e-01 2.0929295939913967e-01 0.0000000000000000e+00  9.1061416524410388e-01 1.3736762831189256e-01 0.0000000000000000e+00  7.9207777180141742e-02 6.1964314794788304e-02 0.0000000000000000e+00  1.2395908569547641e-01 1.4634795087854414e-02 0.0000000000000000e+00  1.0721235296062850e-01 -2.5354149938554843e-01 0.0000000000000000e+00  1.2136036280475378e-01 -2.3100342424592132e-02 0.0000000000000000e+00  8.7567243231839886e-01 -1.7161379940626331e-01 0.0000000000000000e+00  1.1677435556625633e-01 -1.7816200637980788e-03 0.0000000000000000e+00  1.1226624735768401e-01 -3.4286625674375916e-03 0.0000000000000000e+00  -4.7511071444942765e-01 2.8641056365560846e-01 0.0000000000000000e+00  -7.6967812611307962e-01 -2.3799999645010156e-01 0.0000000000000000e+00  -6.7351467055687708e-01 -4.7767267212144304e-01 0.0000000000000000e+00  -1.2972604928681519e-01 1.0310740416651407e-01 0.0000000000000000e+00  1.9506491766768891e-01 -1.3599582269106733e-01 0.0000000000000000e+00  1.2036443636071059e-01 1.7740838386210607e-03 0.0000000000000000e+00  -1.9878711911093097e-01 -1.1879504630930288e-01 0.0000000000000000e+00  1.1434110863083247e-01 -5.6133504783615251e-04 0.0000000000000000e+00  1.3244876293449404e-01 -5.4184094655885938e-02 0.0000000000000000e+00  9.6070652766110110e-01 -6.0593697943386957e-04 0.0000000000000000e+00  -6.3996910622380787e-01 -2.6724470696523533e-02 0.0000000000000000e+00  4.5904845421216200e-01 -1.7090710880797014e-01 0.0000000000000000e+00  1.1561641612507312e-01 1.8483634131716460e-03 0.0000000000000000e+00  5.2444059081011307e-01 1.3685047442345441e-01 0.0000000000000000e+00  -2.4238787664209607e-01 -9.2000154770278342e-02 0.0000000000000000e+00  1.0560317911252631e-01 2.7694060225495402e-03 0.0000000000000000e+00  2.7624320701315014e-01 -6.3218799033049167e-01 0.0000000000000000e+00  5.9024053738148174e-01 -4.6694646074613699e-01 0.0000000000000000e+00  5.6759652286100859e-01 -3.2530282802298888e-01 0.0000000000000000e+00  1.5005319457575031e-01 2.7582775898209955e-01 0.0000000000000000e+00  1.1060348686841015e-01 -3.0047503210717083e-03 0.0000000000000000e+00  8.5581510973569488e-02 -8.0430993661598213e-02 0.0000000000000000e+00  -2.3696378381999542e-01 8.6533174862413478e-02 0.0000000000000000e+00  1.6928178033240301e-01 -2.7656267104634324e-01 0.0000000000000000e+00  -4.2096583165632812e-01 8.8619011728918347e-03 0.0000000000000000e+00  1.9877545012389794e-01 -1.8964460216751203e-02 0.0000000000000000e+00  2.6480892209307516e-01 4.1439848801483814e-01 0.0000000000000000e+00  4.3149737871670163e-01 3.1192234362239074e-01 0.0000000000000000e+00  5.2745163527841787e-01 4.5812885866222403e-01 0.0000000000000000e+00  1.7117465980969089e-02 4.4911617301243562e-01 0.0000000000000000e+00  9.5861800244233819e-01 -