<?xml version="1.0"?>
<VTKFile type="UnstructuredGrid"  version="0.1"  >
<UnstructuredGrid>
<Piece  NumberOfPoints="622" NumberOfCells="1116">
<Points>
<DataArray  type="Float64"  NumberOfComponents="3"  format="ascii">-6 -2 0  -6 2 0  6 2 0  6 -2 0  -2.8 0 0  -1.2 0 0  -5.500000000001853 -2 0  -5.000000000003705 -2 0  -4.500000000005556 -2 0  -4.000000000007409 -2 0  -3.50000000000926 -2 0  -3.000000000011112 -2 0  -2.500000000012963 -2 0  -2.000000000014814 -2 0  -1.500000000016665 -2 0  -1.000000000018516 -2 0  -0.5000000000203677 -2 0  -2.204547655537681e-11 -2 0  0.4999999999796305 -2 0  0.9999999999814779 -2 0  1.499999999983327 -2 0  1.999999999985175 -2 0  2.499999999987029 -2 0  2.999999999988882 -2 0  3.499999999990735 -2 0  3.999999999992589 -2 0  4.49999999999444 -2 0  4.999999999996293 -2 0  5.499999999998147 -2 0  6 -1.500000000001387 0  6 -1.000000000002774 0  6 -0.5000000000041616 0  6 -5.505595979116151e-12 0  6 0.4999999999958384 0  6 0.9999999999972258 0  6 1.499999999998613 0  5.500000000001853 2 0  5.000000000003705 2 0  4.500000000005556 2 0  4.000000000007409 2 0  3.50000000000926 2 0  3.000000000011112 2 0  2.500000000012963 2 0  2.000000000014814 2 0  1.500000000016665 2 0  1.000000000018516 2 0  0.5000000000203677 2 0  2.204547655537681e-11 2 0  -0.4999999999796305 2 0  -0.9999999999814779 2 0  -1.499999999983327 2 0  -1.999999999985175 2 0  -2.499999999987029 2 0  -2.999999999988882 2 0  -3.499999999990735 2 0  -3.999999999992589 2 0  -4.49999999999444 2 0  -4.999999999996293 2 0  -5.499999999998147 2 0  -6 1.500000000001387 0  -6 1.000000000002774 0  -6 0.5000000000041616 0  -6 5.505595979116151e-12 0  -6 -0.4999999999958384 0  -6 -0.9999999999972258 0  -6 -1.499999999998613 0  -2.796147781337886 -0.07841371226233997 0  -2.784628224322852 -0.1560722576115546 0  -2.765552268586196 -0.2322277418021561 0  -2.739103626009626 -0.30614674589063 0  -2.705537011479457 -0.3771173894593519 0  -2.665175689843037 -0.4444561864141836 0  -2.618408362691456 -0.5075146273293722 0  -2.565685424950688 -0.5656854249477874 0  -2.507514627332613 -0.6184083626887972 0  -2.444456186417533 -0.6651756898407991 0  -2.377117389462776 -0.7055370114776264 0  -2.306146745894456 -0.7391036260080417 0  -2.232227741806235 -0.7655522685849585 0  -2.15607225761588 -0.784628224321992 0  -2.078413712266957 -0.7961477813374315 0  -2.000000000003407 -0.7999999999999998 0  -1.921586287739523 -0.7961477813380696 0  -1.843927742389945 -0.7846282243231506 0  -1.767772258198879 -0.7655522685865098 0  -1.693853254109962 -0.7391036260098718 0  -1.622882610540873 -0.7055370114795768 0  -1.555543813585629 -0.6651756898429115 0  -1.49248537267008 -0.6184083626910072 0  -1.434314575051535 -0.5656854249500112 0  -1.381591637310384 -0.5075146273316149 0  -1.334824310158267 -0.4444561864161359 0  -1.294462988521423 -0.3771173894609975 0  -1.260896373990956 -0.3061467458920351 0  -1.234447731414138 -0.2322277418032578 0  -1.215371775677287 -0.156072257612254 0  -1.203852218662147 -0.07841371226267954 0  -1.203852218662115 0.07841371226235888 0  -1.215371775677132 0.156072257611478 0  -1.234447731413795 0.232227741802127 0  -1.260896373990353 0.3061467458905811 0  -1.294462988520456 0.3771173894591898 0  -1.334824310156812 0.444456186413959 0  -1.381591637308413 0.5075146273292139 0  -1.434314575049147 0.5656854249476236 0  -1.492485372667197 0.6184083626886415 0  -1.555543813582104 0.6651756898405565 0  -1.62288261053673 0.7055370114773629 0  -1.693853254105125 0.7391036260078683 0  -1.767772258193396 0.7655522685848468 0  -1.84392774238373 0.7846282243219146 0  -1.921586287732977 0.7961477813374253 0  -1.999999999996558 0.8 0  -2.078413712260516 0.7961477813380661 0  -2.156072257610207 0.7846282243231205 0  -2.232227741801178 0.7655522685864928 0  -2.306146745890059 0.7391036260098632 0  -2.377117389459098 0.7055370114795929 0  -2.444456186414405 0.6651756898428894 0  -2.50751462732998 0.6184083626909587 0  -2.565685424948549 0.5656854249499272 0  -2.61840836268981 0.5075146273313792 0  -2.665175689841831 0.4444561864159886 0  -2.705537011478692 0.3771173894607835 0  -2.739103626009108 0.3061467458918818 0  -2.76555226858589 0.2322277418031643 0  -2.784628224322724 0.1560722576122001 0  -2.796147781337853 0.07841371226267957 0  0.6720367661319522 0.1312687487860887 0  -4.389489086394485 0.3544472233398538 0  -3.816221554046232 -0.6097988664512611 0  -3.552726516474419 0.9342959806851625 0  -0.2536610443052337 0.8162373554653355 0  -0.1843238977799138 -0.6649951410982842 0  -3.613359951620445 0.1086570650978273 0  -3.146954163409593 -1.074378179335012 0  -0.4255266515582625 0.07734891565364931 0  -0.9413731612925856 1.168014724254929 0  -2.947764053183577 1.200029094390044 0  -0.8319852757411681 -1.058626838707328 0  2.675418990747819 -1.137325591670363e-12 0  -2.602010642259726 -1.287560129290477 0  -2.334401622060699 1.335006108940604 0  -1.524718496628401 1.32890816230333 0  -1.369813829148039 -1.26145150481762 0  -3.294065651892671 -0.4630240940010318 0  -2.072749204569071 -1.388981302138359 0  -0.7546165313921411 0.5601792161340381 0  -3.224879719581335 0.4382689715877901 0  -0.7073137361349826 -0.4625305410752652 0  4.326242945813966 0.3262429458150917 0  -3.187880061217201 0.07437712177460168 0  -2.94792024259867 0.7030255657465158 0  -2.678809277907896 0.9152683582887104 0  -4.911626141576894 -0.5700186648601188 0  -2.980647654587299 -0.5685006168686053 0  -2.769438919323564 -0.8202775213660614 0  -1.936950121013948 1.220669938589229 0  -0.8971643766260747 0.2762459428874499 0  -0.8760878018253068 -0.06836412137772707 0  -1.086827485441145 0.6772548942594016 0  -1.31355927028917 0.8808768148414213 0  -1.034266382739347 -0.5912381576649568 0  -1.241594139118264 -0.836771920085274 0  1.667161185638911 -0.6367996576268693 0  1.778189842800902 0.7191719841256095 0  -3.065106827511819 -0.266795371500425 0  3.714311277362231 -0.7275465302492842 0  -1.728329421201519 -1.09954751473283 0  4.870629493137888 -0.7325040699186681 0  -3.024707894719303 0.2567561910603656 0  -4.375540207252226 1.228935704312058 0  -2.272077148001781 -1.086192861256262 0  3.351408248797803 0.9175227128129597 0  -5.141847419540732 0.8091901960109126 0  0.5769368286199241 1.111816231125821 0  0.7411482978492124 -1.079569101289617 0  -1.074013749991219 0.430231207546053 0  -1.04664573441257 -0.3358382377487088 0  -2.439195336951085 0.9224778883059374 0  -2.902607676587358 0.4360473765597399 0  -1.629450174302152 1.035617385691805 0  -2.146859933125513 1.032375363966426 0  2.587625196444542 -0.9999926061845814 0  -2.529286802957126 -0.8830616815739111 0  -1.493798157676768 -0.8794705728517196 0  -1.932158132383022 -1.026681566564148 0  -4.09956359341904 -0.1372485582942864 0  5.055802064425553 1.050933510837308 0  -4.413659685984891 -1.207626391697488 0  -4.961411026474009 0.1201902955685026 0  -3.771151641156835 -1.303594976371997 0  -3.001321503506133 -0.04919177107285733 0  -3.881733605683001 0.5124517634812003 0  -0.1971627317996802 -1.336445372382849 0  -2.742825060181767 0.6732573903735507 0  2.520439429199979 1.129372838786189 0  -1.026326428668429 0.1384273198437734 0  -2.779290004861729 -0.5844691722665721 0  -2.895095740820851 -0.4261289730972082 0  -1.275682076193407 0.6630703172777138 0  0.1045291701958869 0.3433373435296472 0  5.175560481258801 0.0608563229178163 0  -1.211574424201636 -0.5847362589868093 0  -1.85847006217035 1.007917631940711 0  4.152535916385823 1.131901130662082 0  -1.04878257200685 -0.1253529988863012 0  1.432836501626023 0.05634449574318775 0  3.560672936003603 0.01188897172456759 0  -3.351823698389408 -0.1821329582635926 0  -5.145153363200735 -1.259166339382508 0  0.03473693330309885 -0.1724947236036572 0  -4.377830921337186 -0.6172564090242229 0  -0.3943750728122595 1.410897156959435 0  -1.661073679471639 -0.9342065000197183 0  -1.49086536677686 0.8331714487926741 0  -2.584486130952032 0.7871482690034864 0  4.270535884593893 -1.259607924744415 0  -1.757417028085795 -1.505182186951191 0  -3.430586920998477 1.425579221231371 0  -2.917598827418652 -0.2298465409534677 0  -2.328978331116049 -0.9300959620317677 0  -2.148543000691344 -0.9751580214451921 0  1.002654111360038 -0.4521702885594788 0  -4.628651824080903 -0.1127998710567241 0  -2.948904386702482 0.1555943115410545 0  0.4165242577134774 -0.5629432649478633 0  -3.698137692471105 -0.3173027948676715 0  -3.491400684461791 -0.7926319721650269 0  -0.3844454817728994 0.4680628696134375 0  -3.207830713508533 0.9778749990559993 0  3.229909751065535 -1.326302454776001 0  5.330007715336748 -1.312905173261894 0  -2.649214054100534 -0.713314536278899 0  1.342022964818772 -1.328315248672686 0  -2.556460939068198 1.202372762828344 0  -0.3497819755044588 -0.3080427614060888 0  -4.928440909495523 1.387622767511967 0  1.309170811945155 1.337467055109531 0  -1.352031940181449 -0.7151198948590243 0  -0.6132855723904642 0.9519045895123004 0  4.266838388406324 -0.3707357390867402 0  -3.834389788310238 1.371594798941152 0  -1.187890214580146 0.4851427123079557 0  -1.109118888029193 0.3185947354467283 0  0.1837819401738013 1.234799661476361 0  1.108165254659559 0.6237223548284967 0  -0.5266600156584522 -0.8113991260886402 0  -4.643822083543982 0.7834094684931707 0  -1.146235204666366 -0.4027330721405781 0  2.049029845992713 -0.2664662499985428 0  2.002665761665898 -1.328912351029848 0  -1.678783505586872 0.8978832065736417 0  -2.049499525232052 0.9483890761590005 0  -2.229972236535132 0.9181006323151361 0  -3.033763529945482 -1.54240494280775 0  -3.562344364746847 0.5622550957224539 0  -5.524396842903405 -0.2709714867672603 0  -0.9710982764034376 -1.549038578476423 0  3.058819320130555 -0.5375106252795963 0  -4.170365230099585 0.7342553699229977 0  -1.045878746461381 -8.187420622554697e-05 0  -1.864822945411764 -0.9219031104673102 0  -0.6251005091687033 -0.2120650512195049 0  2.317562622406059 0.4886417799113238 0  -0.6674371191466613 0.1483993095055008 0  -2.705757882979874 1.609712312948224 0  
[...]
<PointData  Vectors="f_22"> 
<DataArray  type="Float64"  Name="f_22"  NumberOfComponents="3" format="ascii">0.0000000000000000e+00 0.0000000000000000e+00 0.0000000000000000e+00  0.0000000000000000e+00 0.0000000000000000e+00 0.0000000000000000e+00  0.0000000000000000e+00 0.0000000000000000e+00 0.0000000000000000e+00  0.0000000000000000e+00 0.0000000000000000e+00 0.0000000000000000e+00  9.9999997708411070e-01 0.0000000000000000e+00 0.0000000000000000e+00  9.9999997708411070e-01 0.0000000000000000e+00 0.0000000000000000e+00  0.0000000000000000e+00 0.0000000000000000e+00 0.0000000000000000e+00  0.0000000000000000e+00 0.0000000000000000e+00 0.0000000000000000e+00  0.0000000000000000e+00 0.0000000000000000e+00 0.0000000000000000e+00  0.0000000000000000e+00 0.0000000000000000e+00 0.0000000000000000e+00  0.0000000000000000e+00 0.0000000000000000e+00 0.0000000000000000e+00  0.0000000000000000e+00 0.0000000000000000e+00 0.0000000000000000e+00  0.0000000000000000e+00 0.0000000000000000e+00 0.0000000000000000e+00  0.0000000000000000e+00 0.0000000000000000e+00 0.0000000000000000e+00  0.0000000000000000e+00 0.0000000000000000e+00 0.0000000000000000e+00  0.0000000000000000e+00 0.0000000000000000e+00 0.0000000000000000e+00  0.0000000000000000e+00 0.0000000000000000e+00 0.0000000000000000e+00  0.0000000000000000e+00 0.0000000000000000e+00 0.0000000000000000e+00  0.0000000000000000e+00 0.0000000000000000e+00 0.0000000000000000e+00  0.0000000000000000e+00 0.0000000000000000e+00 0.0000000000000000e+00  0.0000000000000000e+00 0.0000000000000000e+00 0.0000000000000000e+00  0.0000000000000000e+00 0.0000000000000000e+00 0.0000000000000000e+00  0.0000000000000000e+00 0.0000000000000000e+00 0.0000000000000000e+00  0.0000000000000000e+00 0.0000000000000000e+00 0.0000000000000000e+00  0.0000000000000000e+00 0.0000000000000000e+00 0.0000000000000000e+00  0.0000000000000000e+00 0.0000000000000000e+00 0.0000000000000000e+00  0.0000000000000000e+00 0.0000000000000000e+00 0.0000000000000000e+00  0.0000000000000000e+00 0.0000000000000000e+00 0.0000000000000000e+00  0.0000000000000000e+00 0.0000000000000000e+00 0.0000000000000000e+00  2.6815815115881902e-01 1.6718965471916526e-04 0.0000000000000000e+00  2.8811234615730597e-01 1.7482811392644261e-04 0.0000000000000000e+00  2.8929344033233434e-01 -1.4885859251163391e-05 0.0000000000000000e+00  2.8936120588812486e-01 1.9509029769589127e-07 0.0000000000000000e+00  2.8930363444653340e-01 -1.4818132819115304e-06 0.0000000000000000e+00  2.8876697985674132e-01 2.0875874581689636e-04 0.0000000000000000e+00  2.6886451504100622e-01 -4.5266669054395048e-04 0.0000000000000000e+00  0.0000000000000000e+00 0.0000000000000000e+00 0.0000000000000000e+00  0.0000000000000000e+00 0.0000000000000000e+00 0.0000000000000000e+00  0.0000000000000000e+00 0.0000000000000000e+00 0.0000000000000000e+00  0.0000000000000000e+00 0.0000000000000000e+00 0.0000000000000000e+00  0.0000000000000000e+00 0.0000000000000000e+00 0.0000000000000000e+00  0.0000000000000000e+00 0.0000000000000000e+00 0.0000000000000000e+00  0.0000000000000000e+00 0.0000000000000000e+00 0.0000000000000000e+00  0.0000000000000000e+00 0.0000000000000000e+00 0.0000000000000000e+00  0.0000000000000000e+00 0.0000000000000000e+00 0.0000000000000000e+00  0.0000000000000000e+00 0.0000000000000000e+00 0.0000000000000000e+00  0.0000000000000000e+00 0.0000000000000000e+00 0.0000000000000000e+00  0.0000000000000000e+00 0.0000000000000000e+00 0.0000000000000000e+00  0.0000000000000000e+00 0.0000000000000000e+00 0.0000000000000000e+00  0.0000000000000000e+00 0.0000000000000000e+00 0.0000000000000000e+00  0.0000000000000000e+00 0.0000000000000000e+00 0.0000000000000000e+00  0.0000000000000000e+00 0.0000000000000000e+00 0.0000000000000000e+00  0.0000000000000000e+00 0.0000000000000000e+00 0.0000000000000000e+00  0.0000000000000000e+00 0.0000000000000000e+00 0.0000000000000000e+00  0.0000000000000000e+00 0.0000000000000000e+00 0.0000000000000000e+00  0.0000000000000000e+00 0.0000000000000000e+00 0.0000000000000000e+00  0.0000000000000000e+00 0.0000000000000000e+00 0.0000000000000000e+00  0.0000000000000000e+00 0.0000000000000000e+00 0.0000000000000000e+00  0.0000000000000000e+00 0.0000000000000000e+00 0.0000000000000000e+00  2.6332453927666633e-01 -9.6998318087950690e-04 0.0000000000000000e+00  2.8631129411968470e-01 -9.8360783341587803e-04 0.0000000000000000e+00  2.9444253074220650e-01 -1.1924011452185926e-03 0.0000000000000000e+00  2.9851591662329841e-01 8.2664035689302914e-04 0.0000000000000000e+00  2.9519908277229134e-01 5.3926191006772796e-04 0.0000000000000000e+00  2.8707882296099518e-01 9.5351921201182444e-04 0.0000000000000000e+00  2.6291802655895663e-01 8.1077270727304338e-04 0.0000000000000000e+00  9.9999997708411070e-01 0.0000000000000000e+00 0.0000000000000000e+00  9.9999997708411070e-01 0.0000000000000000e+00 0.0000000000000000e+00  9.9999997708411070e-01 0.0000000000000000e+00 0.0000000000000000e+00  9.9999997708411070e-01 0.0000000000000000e+00 0.0000000000000000e+00  9.9999997708411070e-01 0.0000000000000000e+00 0.0000000000000000e+00  9.9999997708411070e-01 0.0000000000000000e+00 0.0000000000000000e+00  9.9999997708411070e-01 0.0000000000000000e+00 0.0000000000000000e+00  9.9999997708411070e-01 0.0000000000000000e+00 0.0000000000000000e+00  9.9999997708411070e-01 0.0000000000000000e+00 0.0000000000000000e+00  9.9999997708411070e-01 0.0000000000000000e+00 0.0000000000000000e+00  9.9999997708411070e-01 0.0000000000000000e+00 0.0000000000000000e+00  9.9999997708411070e-01 0.0000000000000000e+00 0.0000000000000000e+00  9.9999997708411070e-01 0.0000000000000000e+00 0.0000000000000000e+00  9.9999997708411070e-01 0.0000000000000000e+00 0.0000000000000000e+00  9.9999997708411070e-01 0.0000000000000000e+00 0.0000000000000000e+00  9.9999997708411070e-01 0.0000000000000000e+00 0.0000000000000000e+00  9.9999997708411070e-01 0.0000000000000000e+00 0.0000000000000000e+00  9.9999997708411070e-01 0.0000000000000000e+00 0.0000000000000000e+00  9.9999997708411070e-01 0.0000000000000000e+00 0.0000000000000000e+00  9.9999997708411070e-01 0.0000000000000000e+00 0.0000000000000000e+00  9.9999997708411070e-01 0.0000000000000000e+00 0.0000000000000000e+00  9.9999997708411070e-01 0.0000000000000000e+00 0.0000000000000000e+00  9.9999997708411070e-01 0.0000000000000000e+00 0.0000000000000000e+00  9.9999997708411070e-01 0.0000000000000000e+00 0.0000000000000000e+00  9.9999997708411070e-01 0.0000000000000000e+00 0.0000000000000000e+00  9.9999997708411070e-01 0.0000000000000000e+00 0.0000000000000000e+00  9.9999997708411070e-01 0.0000000000000000e+00 0.0000000000000000e+00  9.9999997708411070e-01 0.0000000000000000e+00 0.0000000000000000e+00  9.9999997708411070e-01 0.0000000000000000e+00 0.0000000000000000e+00  9.9999997708411070e-01 0.0000000000000000e+00 0.0000000000000000e+00  9.9999997708411070e-01 0.0000000000000000e+00 0.0000000000000000e+00  9.9999997708411070e-01 0.0000000000000000e+00 0.0000000000000000e+00  9.9999997708411070e-01 0.0000000000000000e+00 0.0000000000000000e+00  9.9999997708411070e-01 0.0000000000000000e+00 0.0000000000000000e+00  9.9999997708411070e-01 0.0000000000000000e+00 0.0000000000000000e+00  9.9999997708411070e-01 0.0000000000000000e+00 0.0000000000000000e+00  9.9999997708411070e-01 0.0000000000000000e+00 0.0000000000000000e+00  9.9999997708411070e-01 0.0000000000000000e+00 0.0000000000000000e+00  9.9999997708411070e-01 0.0000000000000000e+00 0.0000000000000000e+00  9.9999997708411070e-01 0.0000000000000000e+00 0.0000000000000000e+00  9.9999997708411070e-01 0.0000000000000000e+00 0.0000000000000000e+00  9.9999997708411070e-01 0.0000000000000000e+00 0.0000000000000000e+00  9.9999997708411070e-01 0.0000000000000000e+00 0.0000000000000000e+00  9.9999997708411070e-01 0.0000000000000000e+00 0.0000000000000000e+00  9.9999997708411070e-01 0.0000000000000000e+00 0.0000000000000000e+00  9.9999997708411070e-01 0.0000000000000000e+00 0.0000000000000000e+00  9.9999997708411070e-01 0.0000000000000000e+00 0.0000000000000000e+00  9.9999997708411070e-01 0.0000000000000000e+00 0.0000000000000000e+00  9.9999997708411070e-01 0.0000000000000000e+00 0.0000000000000000e+00  9.9999997708411070e-01 0.0000000000000000e+00 0.0000000000000000e+00  9.9999997708411070e-01 0.0000000000000000e+00 0.0000000000000000e+00  9.9999997708411070e-01 0.0000000000000000e+00 0.0000000000000000e+00  9.9999997708411070e-01 0.0000000000000000e+00 0.0000000000000000e+00  9.9999997708411070e-01 0.0000000000000000e+00 0.0000000000000000e+00  9.9999997708411070e-01 0.0000000000000000e+00 0.0000000000000000e+00  9.9999997708411070e-01 0.0000000000000000e+00 0.0000000000000000e+00  9.9999997708411070e-01 0.0000000000000000e+00 0.0000000000000000e+00  9.9999997708411070e-01 0.0000000000000000e+00 0.0000000000000000e+00  9.9999997708411070e-01 0.0000000000000000e+00 0.0000000000000000e+00  9.9999997708411070e-01 0.0000000000000000e+00 0.0000000000000000e+00  9.9999997708411070e-01 0.0000000000000000e+00 0.0000000000000000e+00  9.9999997708411070e-01 0.0000000000000000e+00 0.0000000000000000e+00  5.7221597371540878e-01 3.1008181142971269e-02 0.0000000000000000e+00  3.1014516008755155e-01 -1.2640921278250734e-02 0.0000000000000000e+00  3.1542189113687907e-01 5.9810645297160403e-02 0.0000000000000000e+00  2.6632786182463658e-01 -8.9039662565898126e-02 0.0000000000000000e+00  4.8272440632349167e-01 2.1788760790385431e-01 0.0000000000000000e+00  5.8172236505958697e-01 -1.7235754602732126e-01 0.0000000000000000e+00  3.9071999072164959e-01 -2.1518842056247118e-02 0.0000000000000000e+00  1.7073297955962341e-01 1.3648581252873745e-01 0.0000000000000000e+00  8.5327978776121582e-01 1.9183543165147938e-02 0.0000000000000000e+00  3.4523034929456631e-02 2.4874537446207851e-01 0.0000000000000000e+00  9.2565169544875411e-02 -1.3001785874630351e-01 0.0000000000000000e+00  2.9641722460594316e-01 -3.0274777924220597e-01 0.0000000000000000e+00  3.0086328160023323e-01 -1.8602053337836815e-04 0.0000000000000000e+00  -8.1527470295301163e-02 2.4119309155508004e-01 0.0000000000000000e+00  -2.8041204878769316e-01 -3.2562407106904101e-01 0.0000000000000000e+00  -4.9284882140283948e-01 -1.8913203926293415e-01 0.0000000000000000e+00  -3.5261959403979792e-01 6.0867688181663437e-02 0.0000000000000000e+00  3.8747816311348243e-01 1.6101102669586814e-01 0.0000000000000000e+00  -4.4213143934196464e-01 3.4012274006149212e-01 0.0000000000000000e+00  8.1633628874177167e-01 1.4721225167010707e-01 0.0000000000000000e+00  4.0961994528838230e-01 -1.8234651422311035e-01 0.0000000000000000e+00  8.4176094411910996e-01 -1.2011132192188444e-01 0.0000000000000000e+00  2.8973844283232014e-01 2.7111856563703297e-04 0.0000000000000000e+00  5.4621457859917122e-01 -4.3975537580788641e-02 0.0000000000000000e+00  2.3357229681416636e-01 -3.4124320556985005e-01 0.0000000000000000e+00  -3.7679627174330842e-02 -4.4903878238110168e-01 0.0000000000000000e+00  2.9643867895955589e-01 6.3475191525002262e-03 0.0000000000000000e+00  3.4859239268502212e-01 3.4699562356282426e-01 0.0000000000000000e+00  7.0781060926862052e-02 4.4516730389518333e-01 0.0000000000000000e+00  -4.0975176447931888e-01 -3.7298430882771050e-01 0.0000000000000000e+00  9.4361300825853478e-01 5.3929167455061808e-02 0.0000000000000000e+00  9.6109152908472739e-01 -1.4427159951153793e-02 0.0000000000000000e+00  9.0002947352755669e-01 1.2713888365639722e-01 0.0000000000000000e+00  6.7388909934667496e-01 7.9818363533861722e-02 0.0000000000000000e+00  9.0242192590385828e-01 -1.1351950901599235e-01 0.0000000000000000e+00  7.8051914232641584e-01 -1.1057690445248416e-01 0.0000000000000000e+00  3.1525476039526451e-01 -6.7978991313835072e-02 0.0000000000000000e+00  3.0246051134213020e-01 5.9073216288310706e-02 0.0000000000000000e+00  5.5712261815789299e-01 2.0787644573357275e-01 0.0000000000000000e+00  2.8952619968651960e-01 -1.5813397174174737e-03 0.0000000000000000e+00  -1.6142980450063724e-01 2.2497595936140818e-01 0.0000000000000000e+00  2.8917898400407976e-01 -2.3804170405535591e-04 0.0000000000000000e+00  5.8729935490708607e-01 -2.2571576684677985e-01 0.0000000000000000e+00  2.7450902700814300e-01 -1.7603676613601842e-02 0.0000000000000000e+00  -3.3330753169935606e-01 4.9390921794294435e-01 0.0000000000000000e+00  2.8746244350246164e-01 2.8711908622260332e-03 0.0000000000000000e+00  2.9092287866884764e-01 -3.7843154575945412e-03 0.0000000000000000e+00  1.7377843363025641e-01 1.9153730808914937e-01 0.0000000000000000e+00  1.9582953530724795e-01 -1.8581970423767163e-01 0.0000000000000000e+00  9.5048977707225579e-01 6.2510627583260231e-02 0.0000000000000000e+00  9.6335225110052103e-01 -4.8537285110264769e-02 0.0000000000000000e+00  -2.1369709855026245e-01 -5.8125269789524880e-01 0.0000000000000000e+00  4.8672731533207225e-01 -3.9016894163731219e-01 0.0000000000000000e+00  5.4405986916331500e-02 -1.3904282266308968e-01 0.0000000000000000e+00  -3.1996795869818029e-01 -4.3733873568328380e-01 0.0000000000000000e+00  2.8412622541011118e-01 -1.2892876084054181e-02 0.0000000000000000e+00  -1.1898109978406532e-01 5.7071986958990595e-01 0.0000000000000000e+00  6.2895288962420814e-01 -1.1158487745296177e-02 0.0000000000000000e+00  -1.8103074010560544e-01 2.9537895322516122e-01 0.0000000000000000e+00  3.2972492623312016e-01 1.0492338220787599e-02 0.0000000000000000e+00  2.8738347411352766e-01 3.7845510060331900e-04 0.0000000000000000e+00  2.7530890921936269e-01 1.7259141376231042e-02 0.0000000000000000e+00  3.0156888879867727e-01 -8.5706342010385961e-04 0.0000000000000000e+00  2.4232122808516554e-01 3.9170662926332846e-02 0.0000000000000000e+00  7.0131941518136132e-01 4.0146265608428412e-02 0.0000000000000000e+00  3.2318227655184473e-01 -4.6816051251086920e-02 0.0000000000000000e+00  -6.7183696864429723e-02 -2.2000808663877489e-01 0.0000000000000000e+00  1.7706831150867106e-01 -5.4481003016825280e-01 0.0000000000000000e+00  2.7877264419144265e-01 1.3944031982758402e-02 0.0000000000000000e+00  9.8323008903595843e-01 1.7784797896786730e-02 0.0000000000000000e+00  3.0063859497593870e-01 5.3785338672891525e-01 0.0000000000000000e+00  5.0967336514742501e-01 3.8565954750055209e-01 0.0000000000000000e+00  9.6142241639134252e-01 6.0717554824263442e-02 0.0000000000000000e+00  6.6762719573227980e-01 8.3667928561095756e-02 0.0000000000000000e+00  2.8943531768163488e-01 8.9285040771488382e-05 0.0000000000000000e+00  9.5329607978272424e-01 -6.3704288610384838e-02 0.0000000000000000e+00  -8.1110720875418957e-02 -2.3892413336647397e-01 0.0000000000000000e+00  2.8649503840972751e-01 7.0005246664185347e-04 0.0000000000000000e+00  9.8701548399872163e-01 -1.5663727886777581e-02 0.0000000000000000e+00  4.0295570341211612e-01 1.2054892831303555e-02 0.0000000000000000e+00  2.9144542804670870e-01 1.3124557699468082e-05 0.0000000000000000e+00  4.5499941183100129e-01 6.9391877365037144e-02 0.0000000000000000e+00  2.7972705313311030e-01 3.9590122610007831e-03 0.0000000000000000e+00  7.2295241140137934e-01 -4.3676621754135288e-02 0.0000000000000000e+00  3.0123448292598592e-01 2.0383450171609863e-02 0.0000000000000000e+00  -1.6185600012415077e-01 2.2296112380163405e-01 0.0000000000000000e+00  3.2153094924784575e-01 6.5368822229326037e-02 0.0000000000000000e+00  7.9378657217433879e-01 2.2269524560173382e-02 0.0000000000000000e+00  -5.5330358225934725e-02 -6.3933337842926574e-01 0.0000000000000000e+00  2.8449849828656398e-01 -3.8142516100301145e-04 0.0000000000000000e+00  -6.2993228377467259e-01 2.5557845725627876e-01 0.0000000000000000e+00  1.9648514216014673e-01 -3.9202184429631109e-02 0.0000000000000000e+00  6.9099233750074607e-01 2.7319359878033045e-01 0.0000000000000000e+00  -2.7275313940464191e-01 5.4842760431380622e-01 0.0000000000000000e+00  -2.8274325136846623e-01 4.1321175864547000e-01 0.0000000000000000e+00  4.3790624503073705e-01 -9.8775292642171261e-02 0.0000000000000000e+00  3.0700845111682751e-01 3.2790920189955963e-03 0.0000000000000000e+00  7.1817672971602697e-01 -1.7287534711266336e-01 0.0000000000000000e+00  5.1295536173074041e-01 -1.2806149867151873e-01 0.0000000000000000e+00  3.5901275842914410e-01 5.1120728157720147e-02 0.0000000000000000e+00  2.8575394680997052e-01 1.1044372491996766e-01 0.0000000000000000e+00  7.4465492672141131e-01 1.2580237321919549e-01 0.0000000000000000e+00  2.0816900991323642e-01 -1.4574309694499374e-01 0.0000000000000000e+00  2.7959065977272768e-01 -2.5097657640733217e-03 0.0000000000000000e+00  2.8314761076894712e-01 -5.3572597689459484e-05 0.0000000000000000e+00  6.0694744073281244e-02 6.3821454793217258e-01 0.0000000000000000e+00  1.9708236334918358e-01 -7.9729414634725729e-02 0.0000000000000000e+00  -1.3173249811465249e-01 -3.1621418183612332e-01 0.0000000000000000e+00  7.9196576793202578e-01 -8.2768098353562122e-02 0.0000000000000000e+00  2.7152103414969009e-01 -5.1530931683891170e-03 0.0000000000000000e+00  1.8856741302997443e-01 8.0379205569973675e-02 0.0000000000000000e+00  9.6469262626870822e-01 -4.9000783613537068e-02 0.0000000000000000e+00  4.3411696261841382e-01 2.9403073897903859e-01 0.0000000000000000e+00  2.8976115406624159e-01 -3.7969454031376262e-04 0.0000000000000000e+00  2.4066931780345691e-01 -3.0701176019603354e-02 0.0000000000000000e+00  9.6362526748619959e-01 4.8553548350860412e-02 0.0000000000000000e+00  9.7721573203742007e-01 3.4389844468971011e-02 0.0000000000000000e+00  7.5074477498652994e-02 2.0474514923992293e-01 0.0000000000000000e+00  3.6613941168291630e-01 1.2703949751786925e-01 0.0000000000000000e+00  5.6617160365719288e-01 -2.4400377557824490e-01 0.0000000000000000e+00  2.9348842026203903e-01 -1.2419287955165538e-02 0.0000000000000000e+00  9.7060009178628781e-01 -4.2458778627824663e-02 0.0000000000000000e+00  3.2119086537386088e-01 -1.8172190126990725e-02 0.0000000000000000e+00  2.5555936509780436e-01 -2.5980012296225947e-02 0.0000000000000000e+00  4.5902645972516087e-01 -3.7565089106552603e-02 0.0000000000000000e+00  -1.9381020248199554e-01 -3.0471192379636070e-01 0.0000000000000000e+00  -2.9623426285999915e-01 -4.8501792877177058e-01 0.0000000000000000e+00  1.2478993198063269e-01 2.9444887858178927e-02 0.0000000000000000e+00  3.3443062740007007e-01 -9.4325561429723967e-02 0.0000000000000000e+00  2.9728225105534756e-01 7.6216979801063743e-04 0.0000000000000000e+00  -5.7768540103261068e-01 -1.0460319692020874e-01 0.0000000000000000e+00  2.9216930167606486e-01 -4.6951274623622478e-03 0.0000000000000000e+00  2.9864716164012761e-01 -3.1447799101277304e-02 0.0000000000000000e+00  9.8941016751896527e-01 -3.7269414681631965e-04 0.0000000000000000e+00  1.3675033840589465e-01 1.1706815652442439e-01 0.0000000000000000e+00  8.8768723474401035e-01 -5.3903130632444653e-02 0.0000000000000000e+00  3.0215395837205045e-01 1.7528115762637145e-02 0.0000000000000000e+00  9.0945390742970889e-01 3.5419585043962164e-02 0.0000000000000000e+00  6.9291774528026234e-02 -4.3823279002041693e-02 0.0000000000000000e+00  2.4503278208882079e-01 2.6851963392792014e-02 0.0000000000000000e+00  3.4221692862652653e-01 -5.3792459764954570e-01 0.0000000000000000e+00  6.3776558737247202e-01 -3.9948271002228092e-01 0.0000000000000000e+00  9.2143289854500154e-01 -6.1280186370405249e-02 0.0000000000000000e+00  2.8041022088509948e-01 1.9709007172964771e-01 0.0000000000000000e+00  2.8036908505662322e-01 -1.1331687710800834e-03 0.0000000000000000e+00  1.9916292544751102e-01 -2.0540286115713483e-01 0.0000000000000000e+00  -7.2449743367000130e-01 3.0981415667703856e-02 0.0000000000000000e+00  2.9171072796872277e-01 -1.9544907359764402e-01 0.0000000000000000e+00  -4.5039685634306342e-01 -1.6727213908582458e-01 0.0000000000000000e+00  3.4346442741762223e-01 -1.2958064049380246e-02 0.0000000000000000e+00  9.5878388568404049e-01 4.1909777991166401e-02 0.0000000000000000e+00  8.7863275613177971e-01 8.7163716740798827e-02 0.0000000000000000e+00  5.7343346742851231e-01 3.9161450167408368e-01 0.0000000000000000e+00  6.8484464886069840e-01 2.4894574089670951e-01 0.0000000000000000e+00  9.8948024672173107e-01 -1.922888621781896