<?xml version="1.0"?>
<VTKFile type="UnstructuredGrid"  version="0.1"  >
<UnstructuredGrid>
<Piece  NumberOfPoints="622" NumberOfCells="1116">
<Points>
<DataArray  type="Float64"  NumberOfComponents="3"  format="ascii">-6 -2 0  -6 2 0  6 2 0  6 -2 0  -2.8 0 0  -1.2 0 0  -5.500000000001853 -2 0  -5.000000000003705 -2 0  -4.500000000005556 -2 0  -4.000000000007409 -2 0  -3.50000000000926 -2 0  -3.000000000011112 -2 0  -2.500000000012963 -2 0  -2.000000000014814 -2 0  -1.500000000016665 -2 0  -1.000000000018516 -2 0  -0.5000000000203677 -2 0  -2.204547655537681e-11 -2 0  0.4999999999796305 -2 0  0.9999999999814779 -2 0  1.499999999983327 -2 0  1.999999999985175 -2 0  2.499999999987029 -2 0  2.999999999988882 -2 0  3.499999999990735 -2 0  3.999999999992589 -2 0  4.49999999999444 -2 0  4.999999999996293 -2 0  5.499999999998147 -2 0  6 -1.500000000001387 0  6 -1.000000000002774 0  6 -0.5000000000041616 0  6 -5.505595979116151e-12 0  6 0.4999999999958384 0  6 0.9999999999972258 0  6 1.499999999998613 0  5.500000000001853 2 0  5.000000000003705 2 0  4.500000000005556 2 0  4.000000000007409 2 0  3.50000000000926 2 0  3.000000000011112 2 0  2.500000000012963 2 0  2.000000000014814 2 0  1.500000000016665 2 0  1.000000000018516 2 0  0.5000000000203677 2 0  2.204547655537681e-11 2 0  -0.4999999999796305 2 0  -0.9999999999814779 2 0  -1.499999999983327 2 0  -1.999999999985175 2 0  -2.499999999987029 2 0  -2.999999999988882 2 0  -3.499999999990735 2 0  -3.999999999992589 2 0  -4.49999999999444 2 0  -4.999999999996293 2 0  -5.499999999998147 2 0  -6 1.500000000001387 0  -6 1.000000000002774 0  -6 0.5000000000041616 0  -6 5.505595979116151e-12 0  -6 -0.4999999999958384 0  -6 -0.9999999999972258 0  -6 -1.499999999998613 0  -2.796147781337886 -0.07841371226233997 0  -2.784628224322852 -0.1560722576115546 0  -2.765552268586196 -0.2322277418021561 0  -2.739103626009626 -0.30614674589063 0  -2.705537011479457 -0.3771173894593519 0  -2.665175689843037 -0.4444561864141836 0  -2.618408362691456 -0.5075146273293722 0  -2.565685424950688 -0.5656854249477874 0  -2.507514627332613 -0.6184083626887972 0  -2.444456186417533 -0.6651756898407991 0  -2.377117389462776 -0.7055370114776264 0  -2.306146745894456 -0.7391036260080417 0  -2.232227741806235 -0.7655522685849585 0  -2.15607225761588 -0.784628224321992 0  -2.078413712266957 -0.7961477813374315 0  -2.000000000003407 -0.7999999999999998 0  -1.921586287739523 -0.7961477813380696 0  -1.843927742389945 -0.7846282243231506 0  -1.767772258198879 -0.7655522685865098 0  -1.693853254109962 -0.7391036260098718 0  -1.622882610540873 -0.7055370114795768 0  -1.555543813585629 -0.6651756898429115 0  -1.49248537267008 -0.6184083626910072 0  -1.434314575051535 -0.5656854249500112 0  -1.381591637310384 -0.5075146273316149 0  -1.334824310158267 -0.4444561864161359 0  -1.294462988521423 -0.3771173894609975 0  -1.260896373990956 -0.3061467458920351 0  -1.234447731414138 -0.2322277418032578 0  -1.215371775677287 -0.156072257612254 0  -1.203852218662147 -0.07841371226267954 0  -1.203852218662115 0.07841371226235888 0  -1.215371775677132 0.156072257611478 0  -1.234447731413795 0.232227741802127 0  -1.260896373990353 0.3061467458905811 0  -1.294462988520456 0.3771173894591898 0  -1.334824310156812 0.444456186413959 0  -1.381591637308413 0.5075146273292139 0  -1.434314575049147 0.5656854249476236 0  -1.492485372667197 0.6184083626886415 0  -1.555543813582104 0.6651756898405565 0  -1.62288261053673 0.7055370114773629 0  -1.693853254105125 0.7391036260078683 0  -1.767772258193396 0.7655522685848468 0  -1.84392774238373 0.7846282243219146 0  -1.921586287732977 0.7961477813374253 0  -1.999999999996558 0.8 0  -2.078413712260516 0.7961477813380661 0  -2.156072257610207 0.7846282243231205 0  -2.232227741801178 0.7655522685864928 0  -2.306146745890059 0.7391036260098632 0  -2.377117389459098 0.7055370114795929 0  -2.444456186414405 0.6651756898428894 0  -2.50751462732998 0.6184083626909587 0  -2.565685424948549 0.5656854249499272 0  -2.61840836268981 0.5075146273313792 0  -2.665175689841831 0.4444561864159886 0  -2.705537011478692 0.3771173894607835 0  -2.739103626009108 0.3061467458918818 0  -2.76555226858589 0.2322277418031643 0  -2.784628224322724 0.1560722576122001 0  -2.796147781337853 0.07841371226267957 0  0.6720367661319522 0.1312687487860887 0  -4.389489086394485 0.3544472233398538 0  -3.816221554046232 -0.6097988664512611 0  -3.552726516474419 0.9342959806851625 0  -0.2536610443052337 0.8162373554653355 0  -0.1843238977799138 -0.6649951410982842 0  -3.613359951620445 0.1086570650978273 0  -3.146954163409593 -1.074378179335012 0  -0.4255266515582625 0.07734891565364931 0  -0.9413731612925856 1.168014724254929 0  -2.947764053183577 1.200029094390044 0  -0.8319852757411681 -1.058626838707328 0  2.675418990747819 -1.137325591670363e-12 0  -2.602010642259726 -1.287560129290477 0  -2.334401622060699 1.335006108940604 0  -1.524718496628401 1.32890816230333 0  -1.369813829148039 -1.26145150481762 0  -3.294065651892671 -0.4630240940010318 0  -2.072749204569071 -1.388981302138359 0  -0.7546165313921411 0.5601792161340381 0  -3.224879719581335 0.4382689715877901 0  -0.7073137361349826 -0.4625305410752652 0  4.326242945813966 0.3262429458150917 0  -3.187880061217201 0.07437712177460168 0  -2.94792024259867 0.7030255657465158 0  -2.678809277907896 0.9152683582887104 0  -4.911626141576894 -0.5700186648601188 0  -2.980647654587299 -0.5685006168686053 0  -2.769438919323564 -0.8202775213660614 0  -1.936950121013948 1.220669938589229 0  -0.8971643766260747 0.2762459428874499 0  -0.8760878018253068 -0.06836412137772707 0  -1.086827485441145 0.6772548942594016 0  -1.31355927028917 0.8808768148414213 0  -1.034266382739347 -0.5912381576649568 0  -1.241594139118264 -0.836771920085274 0  1.667161185638911 -0.6367996576268693 0  1.778189842800902 0.7191719841256095 0  -3.065106827511819 -0.266795371500425 0  3.714311277362231 -0.7275465302492842 0  -1.728329421201519 -1.09954751473283 0  4.870629493137888 -0.7325040699186681 0  -3.024707894719303 0.2567561910603656 0  -4.375540207252226 1.228935704312058 0  -2.272077148001781 -1.086192861256262 0  3.351408248797803 0.9175227128129597 0  -5.141847419540732 0.8091901960109126 0  0.5769368286199241 1.111816231125821 0  0.7411482978492124 -1.079569101289617 0  -1.074013749991219 0.430231207546053 0  -1.04664573441257 -0.3358382377487088 0  -2.439195336951085 0.9224778883059374 0  -2.902607676587358 0.4360473765597399 0  -1.629450174302152 1.035617385691805 0  -2.146859933125513 1.032375363966426 0  2.587625196444542 -0.9999926061845814 0  -2.529286802957126 -0.8830616815739111 0  -1.493798157676768 -0.8794705728517196 0  -1.932158132383022 -1.026681566564148 0  -4.09956359341904 -0.1372485582942864 0  5.055802064425553 1.050933510837308 0  -4.413659685984891 -1.207626391697488 0  -4.961411026474009 0.1201902955685026 0  -3.771151641156835 -1.303594976371997 0  -3.001321503506133 -0.04919177107285733 0  -3.881733605683001 0.5124517634812003 0  -0.1971627317996802 -1.336445372382849 0  -2.742825060181767 0.6732573903735507 0  2.520439429199979 1.129372838786189 0  -1.026326428668429 0.1384273198437734 0  -2.779290004861729 -0.5844691722665721 0  -2.895095740820851 -0.4261289730972082 0  -1.275682076193407 0.6630703172777138 0  0.1045291701958869 0.3433373435296472 0  5.175560481258801 0.0608563229178163 0  -1.211574424201636 -0.5847362589868093 0  -1.85847006217035 1.007917631940711 0  4.152535916385823 1.131901130662082 0  -1.04878257200685 -0.1253529988863012 0  1.432836501626023 0.05634449574318775 0  3.560672936003603 0.01188897172456759 0  -3.351823698389408 -0.1821329582635926 0  -5.145153363200735 -1.259166339382508 0  0.03473693330309885 -0.1724947236036572 0  -4.377830921337186 -0.6172564090242229 0  -0.3943750728122595 1.410897156959435 0  -1.661073679471639 -0.9342065000197183 0  -1.49086536677686 0.8331714487926741 0  -2.584486130952032 0.7871482690034864 0  4.270535884593893 -1.259607924744415 0  -1.757417028085795 -1.505182186951191 0  -3.430586920998477 1.425579221231371 0  -2.917598827418652 -0.2298465409534677 0  -2.328978331116049 -0.9300959620317677 0  -2.148543000691344 -0.9751580214451921 0  1.002654111360038 -0.4521702885594788 0  -4.628651824080903 -0.1127998710567241 0  -2.948904386702482 0.1555943115410545 0  0.4165242577134774 -0.5629432649478633 0  -3.698137692471105 -0.3173027948676715 0  -3.491400684461791 -0.7926319721650269 0  -0.3844454817728994 0.4680628696134375 0  -3.207830713508533 0.9778749990559993 0  3.229909751065535 -1.326302454776001 0  5.330007715336748 -1.312905173261894 0  -2.649214054100534 -0.713314536278899 0  1.342022964818772 -1.328315248672686 0  -2.556460939068198 1.202372762828344 0  -0.3497819755044588 -0.3080427614060888 0  -4.928440909495523 1.387622767511967 0  1.309170811945155 1.337467055109531 0  -1.352031940181449 -0.7151198948590243 0  -0.6132855723904642 0.9519045895123004 0  4.266838388406324 -0.3707357390867402 0  -3.834389788310238 1.371594798941152 0  -1.187890214580146 0.4851427123079557 0  -1.109118888029193 0.3185947354467283 0  0.1837819401738013 1.234799661476361 0  1.108165254659559 0.6237223548284967 0  -0.5266600156584522 -0.8113991260886402 0  -4.643822083543982 0.7834094684931707 0  -1.146235204666366 -0.4027330721405781 0  2.049029845992713 -0.2664662499985428 0  2.002665761665898 -1.328912351029848 0  -1.678783505586872 0.8978832065736417 0  -2.049499525232052 0.9483890761590005 0  -2.229972236535132 0.9181006323151361 0  -3.033763529945482 -1.54240494280775 0  -3.562344364746847 0.5622550957224539 0  -5.524396842903405 -0.2709714867672603 0  -0.9710982764034376 -1.549038578476423 0  3.058819320130555 -0.5375106252795963 0  -4.170365230099585 0.7342553699229977 0  -1.045878746461381 -8.187420622554697e-05 0  -1.864822945411764 -0.9219031104673102 0  -0.6251005091687033 -0.2120650512195049 0  2.317562622406059 0.4886417799113238 0  -0.6674371191466613 0.1483993095055008 0  -2.705757882979874 1.609712312948224 0  
[...]
<PointData  Vectors="f_22"> 
<DataArray  type="Float64"  Name="f_22"  NumberOfComponents="3" format="ascii">0.0000000000000000e+00 0.0000000000000000e+00 0.0000000000000000e+00  0.0000000000000000e+00 0.0000000000000000e+00 0.0000000000000000e+00  0.0000000000000000e+00 0.0000000000000000e+00 0.0000000000000000e+00  0.0000000000000000e+00 0.0000000000000000e+00 0.0000000000000000e+00  9.9999997960900189e-01 0.0000000000000000e+00 0.0000000000000000e+00  9.9999997960900189e-01 0.0000000000000000e+00 0.0000000000000000e+00  0.0000000000000000e+00 0.0000000000000000e+00 0.0000000000000000e+00  0.0000000000000000e+00 0.0000000000000000e+00 0.0000000000000000e+00  0.0000000000000000e+00 0.0000000000000000e+00 0.0000000000000000e+00  0.0000000000000000e+00 0.0000000000000000e+00 0.0000000000000000e+00  0.0000000000000000e+00 0.0000000000000000e+00 0.0000000000000000e+00  0.0000000000000000e+00 0.0000000000000000e+00 0.0000000000000000e+00  0.0000000000000000e+00 0.0000000000000000e+00 0.0000000000000000e+00  0.0000000000000000e+00 0.0000000000000000e+00 0.0000000000000000e+00  0.0000000000000000e+00 0.0000000000000000e+00 0.0000000000000000e+00  0.0000000000000000e+00 0.0000000000000000e+00 0.0000000000000000e+00  0.0000000000000000e+00 0.0000000000000000e+00 0.0000000000000000e+00  0.0000000000000000e+00 0.0000000000000000e+00 0.0000000000000000e+00  0.0000000000000000e+00 0.0000000000000000e+00 0.0000000000000000e+00  0.0000000000000000e+00 0.0000000000000000e+00 0.0000000000000000e+00  0.0000000000000000e+00 0.0000000000000000e+00 0.0000000000000000e+00  0.0000000000000000e+00 0.0000000000000000e+00 0.0000000000000000e+00  0.0000000000000000e+00 0.0000000000000000e+00 0.0000000000000000e+00  0.0000000000000000e+00 0.0000000000000000e+00 0.0000000000000000e+00  0.0000000000000000e+00 0.0000000000000000e+00 0.0000000000000000e+00  0.0000000000000000e+00 0.0000000000000000e+00 0.0000000000000000e+00  0.0000000000000000e+00 0.0000000000000000e+00 0.0000000000000000e+00  0.0000000000000000e+00 0.0000000000000000e+00 0.0000000000000000e+00  0.0000000000000000e+00 0.0000000000000000e+00 0.0000000000000000e+00  1.9989105628483142e-01 4.0957778573156901e-05 0.0000000000000000e+00  2.0506871613567340e-01 2.1925121068035864e-04 0.0000000000000000e+00  2.0537194498837255e-01 3.6704847279632610e-05 0.0000000000000000e+00  2.0534248215300488e-01 1.2895229300632302e-05 0.0000000000000000e+00  2.0528270253676228e-01 -1.1840887108686143e-05 0.0000000000000000e+00  2.0522205812032090e-01 1.2384293317069684e-04 0.0000000000000000e+00  2.0021459376827022e-01 -1.7097551859633631e-04 0.0000000000000000e+00  0.0000000000000000e+00 0.0000000000000000e+00 0.0000000000000000e+00  0.0000000000000000e+00 0.0000000000000000e+00 0.0000000000000000e+00  0.0000000000000000e+00 0.0000000000000000e+00 0.0000000000000000e+00  0.0000000000000000e+00 0.0000000000000000e+00 0.0000000000000000e+00  0.0000000000000000e+00 0.0000000000000000e+00 0.0000000000000000e+00  0.0000000000000000e+00 0.0000000000000000e+00 0.0000000000000000e+00  0.0000000000000000e+00 0.0000000000000000e+00 0.0000000000000000e+00  0.0000000000000000e+00 0.0000000000000000e+00 0.0000000000000000e+00  0.0000000000000000e+00 0.0000000000000000e+00 0.0000000000000000e+00  0.0000000000000000e+00 0.0000000000000000e+00 0.0000000000000000e+00  0.0000000000000000e+00 0.0000000000000000e+00 0.0000000000000000e+00  0.0000000000000000e+00 0.0000000000000000e+00 0.0000000000000000e+00  0.0000000000000000e+00 0.0000000000000000e+00 0.0000000000000000e+00  0.0000000000000000e+00 0.0000000000000000e+00 0.0000000000000000e+00  0.0000000000000000e+00 0.0000000000000000e+00 0.0000000000000000e+00  0.0000000000000000e+00 0.0000000000000000e+00 0.0000000000000000e+00  0.0000000000000000e+00 0.0000000000000000e+00 0.0000000000000000e+00  0.0000000000000000e+00 0.0000000000000000e+00 0.0000000000000000e+00  0.0000000000000000e+00 0.0000000000000000e+00 0.0000000000000000e+00  0.0000000000000000e+00 0.0000000000000000e+00 0.0000000000000000e+00  0.0000000000000000e+00 0.0000000000000000e+00 0.0000000000000000e+00  0.0000000000000000e+00 0.0000000000000000e+00 0.0000000000000000e+00  0.0000000000000000e+00 0.0000000000000000e+00 0.0000000000000000e+00  1.9763928929327756e-01 -6.7414789102211476e-04 0.0000000000000000e+00  2.0338235475054744e-01 -8.0556067122013154e-04 0.0000000000000000e+00  2.0943889662239518e-01 -8.6945641336864845e-04 0.0000000000000000e+00  2.1237650296379063e-01 4.2778867308027198e-04 0.0000000000000000e+00  2.1016367899323898e-01 5.2625611320059182e-04 0.0000000000000000e+00  2.0403828596208745e-01 9.2652995570636902e-04 0.0000000000000000e+00  1.9745066612308329e-01 6.6251597744915842e-04 0.0000000000000000e+00  9.9999997960900189e-01 0.0000000000000000e+00 0.0000000000000000e+00  9.9999997960900189e-01 0.0000000000000000e+00 0.0000000000000000e+00  9.9999997960900189e-01 0.0000000000000000e+00 0.0000000000000000e+00  9.9999997960900189e-01 0.0000000000000000e+00 0.0000000000000000e+00  9.9999997960900189e-01 0.0000000000000000e+00 0.0000000000000000e+00  9.9999997960900189e-01 0.0000000000000000e+00 0.0000000000000000e+00  9.9999997960900189e-01 0.0000000000000000e+00 0.0000000000000000e+00  9.9999997960900189e-01 0.0000000000000000e+00 0.0000000000000000e+00  9.9999997960900189e-01 0.0000000000000000e+00 0.0000000000000000e+00  9.9999997960900189e-01 0.0000000000000000e+00 0.0000000000000000e+00  9.9999997960900189e-01 0.0000000000000000e+00 0.0000000000000000e+00  9.9999997960900189e-01 0.0000000000000000e+00 0.0000000000000000e+00  9.9999997960900189e-01 0.0000000000000000e+00 0.0000000000000000e+00  9.9999997960900189e-01 0.0000000000000000e+00 0.0000000000000000e+00  9.9999997960900189e-01 0.0000000000000000e+00 0.0000000000000000e+00  9.9999997960900189e-01 0.0000000000000000e+00 0.0000000000000000e+00  9.9999997960900189e-01 0.0000000000000000e+00 0.0000000000000000e+00  9.9999997960900189e-01 0.0000000000000000e+00 0.0000000000000000e+00  9.9999997960900189e-01 0.0000000000000000e+00 0.0000000000000000e+00  9.9999997960900189e-01 0.0000000000000000e+00 0.0000000000000000e+00  9.9999997960900189e-01 0.0000000000000000e+00 0.0000000000000000e+00  9.9999997960900189e-01 0.0000000000000000e+00 0.0000000000000000e+00  9.9999997960900189e-01 0.0000000000000000e+00 0.0000000000000000e+00  9.9999997960900189e-01 0.0000000000000000e+00 0.0000000000000000e+00  9.9999997960900189e-01 0.0000000000000000e+00 0.0000000000000000e+00  9.9999997960900189e-01 0.0000000000000000e+00 0.0000000000000000e+00  9.9999997960900189e-01 0.0000000000000000e+00 0.0000000000000000e+00  9.9999997960900189e-01 0.0000000000000000e+00 0.0000000000000000e+00  9.9999997960900189e-01 0.0000000000000000e+00 0.0000000000000000e+00  9.9999997960900189e-01 0.0000000000000000e+00 0.0000000000000000e+00  9.9999997960900189e-01 0.0000000000000000e+00 0.0000000000000000e+00  9.9999997960900189e-01 0.0000000000000000e+00 0.0000000000000000e+00  9.9999997960900189e-01 0.0000000000000000e+00 0.0000000000000000e+00  9.9999997960900189e-01 0.0000000000000000e+00 0.0000000000000000e+00  9.9999997960900189e-01 0.0000000000000000e+00 0.0000000000000000e+00  9.9999997960900189e-01 0.0000000000000000e+00 0.0000000000000000e+00  9.9999997960900189e-01 0.0000000000000000e+00 0.0000000000000000e+00  9.9999997960900189e-01 0.0000000000000000e+00 0.0000000000000000e+00  9.9999997960900189e-01 0.0000000000000000e+00 0.0000000000000000e+00  9.9999997960900189e-01 0.0000000000000000e+00 0.0000000000000000e+00  9.9999997960900189e-01 0.0000000000000000e+00 0.0000000000000000e+00  9.9999997960900189e-01 0.0000000000000000e+00 0.0000000000000000e+00  9.9999997960900189e-01 0.0000000000000000e+00 0.0000000000000000e+00  9.9999997960900189e-01 0.0000000000000000e+00 0.0000000000000000e+00  9.9999997960900189e-01 0.0000000000000000e+00 0.0000000000000000e+00  9.9999997960900189e-01 0.0000000000000000e+00 0.0000000000000000e+00  9.9999997960900189e-01 0.0000000000000000e+00 0.0000000000000000e+00  9.9999997960900189e-01 0.0000000000000000e+00 0.0000000000000000e+00  9.9999997960900189e-01 0.0000000000000000e+00 0.0000000000000000e+00  9.9999997960900189e-01 0.0000000000000000e+00 0.0000000000000000e+00  9.9999997960900189e-01 0.0000000000000000e+00 0.0000000000000000e+00  9.9999997960900189e-01 0.0000000000000000e+00 0.0000000000000000e+00  9.9999997960900189e-01 0.0000000000000000e+00 0.0000000000000000e+00  9.9999997960900189e-01 0.0000000000000000e+00 0.0000000000000000e+00  9.9999997960900189e-01 0.0000000000000000e+00 0.0000000000000000e+00  9.9999997960900189e-01 0.0000000000000000e+00 0.0000000000000000e+00  9.9999997960900189e-01 0.0000000000000000e+00 0.0000000000000000e+00  9.9999997960900189e-01 0.0000000000000000e+00 0.0000000000000000e+00  9.9999997960900189e-01 0.0000000000000000e+00 0.0000000000000000e+00  9.9999997960900189e-01 0.0000000000000000e+00 0.0000000000000000e+00  9.9999997960900189e-01 0.0000000000000000e+00 0.0000000000000000e+00  9.9999997960900189e-01 0.0000000000000000e+00 0.0000000000000000e+00  3.4854768077206943e-01 3.7541091536680761e-02 0.0000000000000000e+00  2.3079762839974646e-01 -1.7696081782217956e-02 0.0000000000000000e+00  2.4152469711317512e-01 7.6936761583042038e-02 0.0000000000000000e+00  1.8045656486721587e-01 -1.2389545780558449e-01 0.0000000000000000e+00  3.1839233481463930e-01 3.0453157374648915e-01 0.0000000000000000e+00  4.3274195508358143e-01 -2.5635136745421844e-01 0.0000000000000000e+00  3.3298371089145107e-01 -2.7214441234596803e-02 0.0000000000000000e+00  7.1263933636385432e-02 2.0819814415174112e-01 0.0000000000000000e+00  7.8880413908364400e-01 2.9775716187194899e-02 0.0000000000000000e+00  -1.4140058446377338e-01 3.2922830315567475e-01 0.0000000000000000e+00  -4.7437335554129982e-02 -2.1342220650870825e-01 0.0000000000000000e+00  9.6103843808560713e-02 -3.5732928802787522e-01 0.0000000000000000e+00  2.0968386851690590e-01 -1.0636385084149033e-05 0.0000000000000000e+00  -2.5025204076589425e-01 3.0120883791098463e-01 0.0000000000000000e+00  -4.4614571454695856e-01 -3.3153724437551907e-01 0.0000000000000000e+00  -6.8818012142449481e-01 -7.3959560749991757e-02 0.0000000000000000e+00  -5.4563577147503894e-01 -8.9434614206424345e-02 0.0000000000000000e+00  3.4002189070031774e-01 1.9025620725802808e-01 0.0000000000000000e+00  -5.5690941067972621e-01 3.1005892310693073e-01 0.0000000000000000e+00  7.2366651530487103e-01 1.9825943190810297e-01 0.0000000000000000e+00  3.6682467244693634e-01 -2.1606791500409517e-01 0.0000000000000000e+00  7.7119193405092790e-01 -1.6399472520806124e-01 0.0000000000000000e+00  2.0556290262405669e-01 1.2213240662494316e-04 0.0000000000000000e+00  5.1285548460187647e-01 -5.0438069014087081e-02 0.0000000000000000e+00  2.0219739448661825e-01 -4.1303263201677143e-01 0.0000000000000000e+00  -8.7121017487481953e-02 -4.9379761777497549e-01 0.0000000000000000e+00  2.1281592235483041e-01 9.5364196656610462e-03 0.0000000000000000e+00  3.2460852664398115e-01 3.9673585682508677e-01 0.0000000000000000e+00  4.0562298085600162e-02 5.0313523475292299e-01 0.0000000000000000e+00  -5.5555367746093687e-01 -3.4456029016647693e-01 0.0000000000000000e+00  9.1791211113593330e-01 7.7165608278465983e-02 0.0000000000000000e+00  9.4445496096796888e-01 -1.9597476742101601e-02 0.0000000000000000e+00  7.8002149810459009e-01 1.8769194329792668e-01 0.0000000000000000e+00  5.7223682944527132e-01 1.9121914599563794e-01 0.0000000000000000e+00  8.1810889705817924e-01 -1.6330482143816127e-01 0.0000000000000000e+00  6.5952080763959697e-01 -2.1082814979299971e-01 0.0000000000000000e+00  2.1585547221183127e-01 -2.2754594223758886e-02 0.0000000000000000e+00  2.1190561592647264e-01 1.9610007055195045e-02 0.0000000000000000e+00  5.3101071744369677e-01 2.2798937343601774e-01 0.0000000000000000e+00  2.0555902600124695e-01 -6.7149751004575418e-04 0.0000000000000000e+00  -3.3945283376413193e-01 2.1918764619986592e-01 0.0000000000000000e+00  2.0531491300847191e-01 -5.1018808071485700e-05 0.0000000000000000e+00  5.6468888547205931e-01 -2.4691019241573567e-01 0.0000000000000000e+00  1.8878714609429117e-01 -2.4097938170998586e-02 0.0000000000000000e+00  -4.0460468902630009e-01 4.6374225695866195e-01 0.0000000000000000e+00  2.0480101254188479e-01 1.2837318631795153e-03 0.0000000000000000e+00  2.0701523821220952e-01 -6.3957663285636700e-03 0.0000000000000000e+00  1.3993900904933726e-01 1.4295419505595214e-01 0.0000000000000000e+00  1.6405321112273674e-01 -1.1410924638452766e-01 0.0000000000000000e+00  9.2027827147631269e-01 9.1960278350305624e-02 0.0000000000000000e+00  9.4483615318956615e-01 -6.9816789505001337e-02 0.0000000000000000e+00  -2.4659168678599033e-01 -5.6450580985792176e-01 0.0000000000000000e+00  4.7634153383972155e-01 -4.2583890362986132e-01 0.0000000000000000e+00  -8.5921381979219877e-02 -8.9406403294105194e-02 0.0000000000000000e+00  -4.0207487243707130e-01 -4.2666935520097793e-01 0.0000000000000000e+00  2.0422433987048919e-01 -5.0832710723167519e-03 0.0000000000000000e+00  -1.4332301903608827e-01 5.7160149367061130e-01 0.0000000000000000e+00  5.8063345780395159e-01 -6.9983794569142804e-02 0.0000000000000000e+00  -2.8429399264920391e-01 3.0042448945091521e-01 0.0000000000000000e+00  2.5656228513692170e-01 1.2966746197334903e-02 0.0000000000000000e+00  2.0432396405243078e-01 3.3296893464249648e-04 0.0000000000000000e+00  1.9031153013639981e-01 2.3512207152728108e-02 0.0000000000000000e+00  2.1777916430983016e-01 -1.9134569636050929e-03 0.0000000000000000e+00  1.4927824217016339e-01 5.6276557459158980e-02 0.0000000000000000e+00  6.8261019854814475e-01 4.3232075624203170e-02 0.0000000000000000e+00  2.4990578127514099e-01 -6.1335119638740748e-02 0.0000000000000000e+00  -1.4075767345885429e-01 -2.6902225250998824e-01 0.0000000000000000e+00  1.7766132842551569e-01 -5.8463381462350750e-01 0.0000000000000000e+00  2.0104807261390595e-01 5.7847366316288919e-03 0.0000000000000000e+00  9.7571671255477554e-01 2.6042887479826159e-02 0.0000000000000000e+00  3.0083261767077746e-01 5.7312876982904182e-01 0.0000000000000000e+00  4.9823364901108247e-01 4.1826382537504408e-01 0.0000000000000000e+00  8.8443499800527348e-01 1.1217392963786658e-01 0.0000000000000000e+00  5.1529542575513654e-01 1.3945628724888820e-01 0.0000000000000000e+00  2.0538233742120723e-01 3.7558577316196309e-05 0.0000000000000000e+00  8.9833276744523927e-01 -1.0419477836874426e-01 0.0000000000000000e+00  -1.8308444078483610e-01 -2.3531676561662418e-01 0.0000000000000000e+00  2.0389008601989556e-01 3.7063228479139714e-04 0.0000000000000000e+00  9.8127874750251598e-01 -2.2022553606389810e-02 0.0000000000000000e+00  2.4456835217868120e-01 3.9841694892767711e-03 0.0000000000000000e+00  2.0632148040192888e-01 -3.6279651954679969e-05 0.0000000000000000e+00  4.1021060461483061e-01 7.9736107408209231e-02 0.0000000000000000e+00  1.9921210544002971e-01 5.7387427742147485e-03 0.0000000000000000e+00  5.8947381116915687e-01 -6.8746210430669974e-02 0.0000000000000000e+00  2.2015525766621391e-01 2.7287407027900071e-02 0.0000000000000000e+00  -2.3672319893064553e-01 2.7772868492186592e-01 0.0000000000000000e+00  2.6417987013059419e-01 3.8568751996990933e-02 0.0000000000000000e+00  7.4516442606982469e-01 7.7887365617146695e-02 0.0000000000000000e+00  -5.8974369160448667e-02 -6.4061125539307451e-01 0.0000000000000000e+00  2.0366630188211979e-01 -2.8719441158122321e-04 0.0000000000000000e+00  -7.2800227794519179e-01 2.0224324729166093e-01 0.0000000000000000e+00  8.9325910543129231e-02 -6.3742902497035556e-02 0.0000000000000000e+00  6.7671503487461004e-01 2.9190333668877760e-01 0.0000000000000000e+00  -3.1276827994829470e-01 5.3481540377927916e-01 0.0000000000000000e+00  -3.5139449350364321e-01 4.1891215675032101e-01 0.0000000000000000e+00  2.5834606567918184e-01 -5.8673993433772720e-02 0.0000000000000000e+00  2.2593649121017684e-01 4.1056132805677818e-03 0.0000000000000000e+00  7.0264322199451112e-01 -1.8672824465620902e-01 0.0000000000000000e+00  3.1078155780834404e-01 -1.8705047626527910e-01 0.0000000000000000e+00  2.9540835309073549e-01 6.2557447028913832e-02 0.0000000000000000e+00  2.1065071481243208e-01 1.4630730544289561e-01 0.0000000000000000e+00  6.4819089765814919e-01 1.8287641975678506e-01 0.0000000000000000e+00  1.1899864367017376e-01 -2.1390819059208993e-01 0.0000000000000000e+00  2.0252706571281590e-01 -1.2766861257528892e-03 0.0000000000000000e+00  2.0354190361184604e-01 -3.3345382478233919e-05 0.0000000000000000e+00  6.1344536214163581e-02 6.5229226718538924e-01 0.0000000000000000e+00  1.7462403041488742e-01 -3.2917721122283548e-02 0.0000000000000000e+00  -2.7347284377153469e-01 -3.5684339062552423e-01 0.0000000000000000e+00  7.0630026191334394e-01 -1.2151834046582434e-01 0.0000000000000000e+00  1.9458606019689054e-01 -7.6002056887979714e-03 0.0000000000000000e+00  1.7142535634922848e-01 3.4824122610514222e-02 0.0000000000000000e+00  8.9225001027689776e-01 -1.0283413829823375e-01 0.0000000000000000e+00  2.3546134985048120e-01 3.3734880236306475e-01 0.0000000000000000e+00  2.0561114442522246e-01 -2.0191457085012515e-04 0.0000000000000000e+00  1.4973226563831671e-01 -4.4239198859691943e-02 0.0000000000000000e+00  9.3596913252530578e-01 7.5752270728605575e-02 0.0000000000000000e+00  9.6536059724107826e-01 5.0686579063637424e-02 0.0000000000000000e+00  3.2187446714667896e-02 2.1801973013953632e-01 0.0000000000000000e+00  2.3639497348921348e-01 5.8935205871461706e-02 0.0000000000000000e+00  3.9871338961040687e-01 -2.9918430236088345e-01 0.0000000000000000e+00  2.0977318244997675e-01 -1.8195281394477719e-02 0.0000000000000000e+00  9.5300054145824098e-01 -6.3070506982373972e-02 0.0000000000000000e+00  2.1713287019298264e-01 -5.9024444614659338e-03 0.0000000000000000e+00  1.9473136020824486e-01 -1.0326044680952690e-02 0.0000000000000000e+00  4.2397525533437891e-01 -1.8425687109281396e-02 0.0000000000000000e+00  -2.5669497151231135e-01 -3.0942233581790574e-01 0.0000000000000000e+00  -3.4073811218427802e-01 -4.7954284129148045e-01 0.0000000000000000e+00  -1.5878883212268644e-02 6.7768669818626878e-02 0.0000000000000000e+00  2.6795819608359195e-01 -1.2011463714863747e-01 0.0000000000000000e+00  2.1164116330956642e-01 8.9738925350027249e-04 0.0000000000000000e+00  -5.8638688145200091e-01 -1.5880283985513471e-01 0.0000000000000000e+00  2.0660053387765076e-01 -1.7896812668192533e-03 0.0000000000000000e+00  2.1705708151528863e-01 -4.2574854732521157e-02 0.0000000000000000e+00  9.8480711025078116e-01 -6.9786193542646250e-05 0.0000000000000000e+00  9.4300815399569207e-02 1.2346631367244708e-01 0.0000000000000000e+00  8.4056198762426915e-01 -7.5834592594706152e-02 0.0000000000000000e+00  2.1077864320982062e-01 6.2212688952876577e-03 0.0000000000000000e+00  8.7092821186708858e-01 5.1625776469148614e-02 0.0000000000000000e+00  -1.3159403300914399e-01 -7.8223093614497918e-02 0.0000000000000000e+00  1.8934848307406799e-01 1.0628380575246397e-02 0.0000000000000000e+00  3.4369137592027216e-01 -5.7633096495478797e-01 0.0000000000000000e+00  6.2719152087751362e-01 -4.2431338040952821e-01 0.0000000000000000e+00  8.8747792550804505e-01 -8.5041310871400336e-02 0.0000000000000000e+00  2.2316850818603426e-01 2.4960805614803475e-01 0.0000000000000000e+00  2.0052108642266017e-01 -1.2508905972879027e-03 0.0000000000000000e+00  6.3806956967841805e-02 -2.6791594730898322e-01 0.0000000000000000e+00  -6.9672960613753721e-01 8.0004450510676006e-02 0.0000000000000000e+00  2.3445936665869110e-01 -2.4890414468472691e-01 0.0000000000000000e+00  -6.1095901933420482e-01 -1.2360877397603917e-01 0.0000000000000000e+00  2.7418206637835441e-01 -1.7349276559432664e-02 0.0000000000000000e+00  8.8325449650414667e-01 1.0079670276395908e-01 0.0000000000000000e+00  8.2718562193411449e-01 1.2254620161103805e-01 0.0000000000000000e+00  5.7206244291427744e-01 4.1685850578912020e-01 0.0000000000000000e+00  4.9114000538764435e-01 3.0672865131925636e-01 0.0000000000000000e+00  9.8456966965674964e-01 -2.758275517